ITEM: TIMESTEP
672
ITEM: NUMBER OF ATOMS
2048
ITEM: BOX BOUNDS xy xz yz pp pp pp
52.78774292968965653472 104.7166008172307130053 3.213279547330387231341
52.78774292968965653472 101.503321269900325774 0
-5e-01 5e-01 0.0
ITEM: ATOMS id type x y nonaffx nonaffy
1 1 6.255312958886013e+01 6.212247492224715e+01 -1.843297228990741e+00 3.820319340536682e-01
2 1 6.235343516451044e+01 6.428785632894999e+01 -1.628763302997934e+00 -5.228421636243585e-01
3 2 6.589161334147568e+01 7.377433965826968e+01 3.310354886794083e+00 -5.945578681700344e+00
4 1 6.393026919924201e+01 5.602556830355842e+01 -3.946735632727975e+00 -2.279079086054014e+00
5 1 6.115461532791387e+01 5.603197831158749e+01 -3.461427019193118e+00 -1.073573290170043e+00
6 2 6.348963531850602e+01 7.704706994602446e+01 2.682312203755588e+00 -1.613991882711443e+00
7 1 6.599482497753519e+01 6.137963450680058e+01 -4.020389394599591e+00 4.555377523937668e-01
8 2 6.090665045285548e+01 6.283528617484725e+01 -1.528442433726144e+00 -1.141870872253664e+00
9 1 6.663742417689070e+01 6.062163996454484e+01 -3.541381658150927e+00 3.351185711179566e-01
10 1 6.585494671170136e+01 6.798222949657536e+01 -2.555642125917467e+00 -2.748016863224833e+00
11 1 6.892184643503479e+01 7.455250199339785e+01 7.384593627569200e-01 1.241840730893927e+00
12 2 5.476469916878369e+01 7.231766481425402e+01 7.020134316475368e-01 1.110404299787731e+00
13 2 5.859071393700524e+01 6.033302502144712e+01 -1.980913319956675e+00 -2.135489366981312e-01
14 2 6.730269074273355e+01 6.662186574200592e+01 -8.939632760751848e-01 -3.408539708899551e-01
15 2 5.462648154830502e+01 6.805450792578195e+01 -1.065221939636185e+00 8.721610473573074e-01
16 2 5.500510773541827e+01 5.372646951208105e+01 -1.779245570439689e+00 -1.134611832497685e+00
17 2 6.342230376212526e+01 6.383387466763731e+01 -1.192664316491740e+00 -5.941125975796843e-01
18 2 5.796606135802957e+01 5.827941696460776e+01 -9.918874827365959e-01 -1.085338664400315e-01
19 2 6.244511924551277e+01 5.516350170626541e+01 -1.349536686516008e+00 -1.632757508693722e+00
20 2 5.758356017330687e+01 7.443176931684810e+01 1.076938758818065e+00 -8.460230051114208e-02
21 1 6.044490042427004e+01 5.661207197253661e+01 -3.151914901345914e+00 -1.052798772502764e+00
22 2 6.534119188297730e+01 7.030619290670269e+01 -3.434130519867280e+00 -4.864507202692957e+00
23 2 6.486907987573409e+01 5.860271139587535e+01 -3.152025431749736e+00 -6.387009817617164e-01
24 1 6.015988121628435e+01 7.518436571258812e+01 2.694828275070693e+00 1.952674841555359e+00
25 2 6.351680114587619e+01 5.704422432519068e+01 -1.063987517634580e+00 -1.175137436758355e+00
26 1 6.314698429847690e+01 5.337807972672181e+01 -2.293200142698811e+00 -2.956571182923132e+00
27 1 6.836424753619228e+01 7.534887006351690e+01 1.324013329990096e+00 7.724633306387126e-01
28 1 6.795641050373089e+01 5.656935078850312e+01 -2.518703357357586e+00 -7.045650944309848e-01
29 1 6.329013589376193e+01 7.206989004820647e+01 1.016443820608837e+00 -1.263874590199934e+00
30 1 6.673317889024668e+01 6.429550824298012e+01 -1.217963180635031e+00 1.258906268164573e+00
31 1 5.951717129510273e+01 5.630139786849227e+01 -3.426804223101282e+00 -3.352661368094165e-01
32 2 5.922409935811993e+01 5.521758185745475e+01 -2.649543412395937e+00 -5.831827282937094e-01
33 1 5.920385063561714e+01 7.321324398963984e+01 1.414907970682233e+00 2.015394431495339e+00
34 1 5.974206599179924e+01 5.323556110817798e+01 -1.662870526192660e+00 -5.436081435335249e-01
35 2 5.342161350031083e+01 5.692535743322970e+01 -7.910250705778796e-01 -8.689749317602400e-01
36 1 6.932908165256401e+01 7.537797068567156e+01 2.316307959941490e+00 -7.079497530198984e-01
37 2 6.810971806039687e+01 5.930656217084609e+01 -3.498895536288204e+00 -9.435868676133052e-01
38 1 5.954481463163154e+01 6.753714849644474e+01 -3.094201174432117e+00 1.943454445604420e-01
39 2 6.170289581288844e+01 6.001316904896282e+01 -2.227350244025339e+00 -3.139453816015952e-01
40 2 5.726665313176713e+01 7.315379548055671e+01 4.446271688159753e-01 4.475467434097313e-01
41 2 5.693582389008548e+01 5.463557711837884e+01 -2.735762245630507e+00 -3.939968345455392e-01
42 2 6.487021898946732e+01 6.110178337453357e+01 -3.445630599876124e+00 -1.716418680980051e+00
43 2 6.147305879737802e+01 7.706228583304068e+01 2.824016941102930e+00 -6.322061380170336e-01
44 1 5.832941560717677e+01 7.304841799795938e+01 7.016844855386491e-01 2.199219469181819e+00
45 1 5.744883960730427e+01 6.582339799145615e+01 -1.740844748396840e+00 3.425483031565003e-01
46 1 6.606180848072603e+01 6.364518267755508e+01 -9.352370225251855e-01 8.273870639530507e-01
47 1 5.679473266485665e+01 6.657428569252991e+01 -1.889041581535134e+00 -2.728345078550464e-01
48 1 6.392253174222257e+01 5.806645838393552e+01 -2.855712593035693e+00 -7.218448000051100e-01
49 2 6.547667422817547e+01 6.908585447337738e+01 -2.035091171600253e+00 -3.554464318193205e+00
50 1 5.858048443453298e+01 5.603201745334997e+01 -3.201737771054340e+00 -8.280869456611031e-01
51 1 6.406048544579282e+01 6.290912647640187e+01 -1.421206665099106e+00 -1.139069885058195e+00
52 2 5.769073238828827e+01 6.286532087768726e+01 -1.413537089754942e+00 -2.459093365880842e-02
53 2 6.704399592546909e+01 5.594023987435791e+01 -2.198484880927945e+00 -4.532234407404614e-01
54 1 5.580622173418003e+01 5.448567379415804e+01 -2.768884736588557e+00 -1.123665490636178e+00
55 2 6.826831009697896e+01 7.215117654607810e+01 8.135828304241256e+00 4.926547345171677e-01
56 1 5.836668829216522e+01 6.606612104543598e+01 -2.106372981298998e+00 -3.099615153961254e-01
57 1 6.828772460096577e+01 7.106397344131234e+01 -7.792752218101180e+00 -2.503511896090857e-01
58 2 6.244278501749090e+01 7.616427010396693e+01 3.595718665703840e+00 -1.165411318760283e+00
59 1 6.843212062397190e+01 6.678358182426575e+01 -1.133234017110659e+00 1.238085707916148e+00
60 1 5.835959190567456e+01 6.891246089817548e+01 -1.206283696859922e+00 2.982493012240118e+00
61 1 5.578029857703343e+01 7.071111957322914e+01 1.506096497426635e+00 5.289559799004261e-01
62 1 5.576776412370768e+01 7.168428416201013e+01 5.142104574955066e-01 8.500007851936633e-01
63 2 5.387134852237666e+01 6.057896168239575e+01 -1.495197206556249e+00 -3.569483683155470e-01
64 2 6.551536375839551e+01 7.658080186379954e+01 2.190010239666799e+00 -1.745489515352879e+00
65 1 6.480250141101359e+01 7.568702549612509e+01 1.687251091752062e+00 -2.358332857197554e+00
66 1 5.500745704737390e+01 7.123192719843495e+01 1.113892570889541e+00 8.881205898076321e-01
67 1 6.531559407557178e+01 5.469951355115951e+01 -1.496110281920088e+00 -3.665260168267545e-01
68 1 6.225438406302872e+01 5.906442918809087e+01 -1.498401147761788e+00 -3.126073101148360e-01
69 1 5.486517100506577e+01 6.701324814381937e+01 -2.098269736127638e+00 4.144404160109261e-01
70 2 5.646186054275037e+01 7.518294760930543e+01 9.010151547547817e-01 6.039139435354246e-01
71 2 6.369611207453751e+01 6.179582162016305e+01 -2.587441562742958e+00 -6.619791557641695e-01
72 2 5.582874873609953e+01 5.893050895886176e+01 -1.311308377572431e+00 -1.643748478671139e-01
73 1 6.820256273163081e+01 5.431509463146902e+01 -1.567790754298378e+00 -4.218754640272990e-01
74 1 6.241808989784604e+01 6.877563116682020e+01 -3.313643536837918e+00 -8.571066640957660e-01
75 1 5.880574510236129e+01 6.260191002711427e+01 -2.141018117831894e+00 -7.487913857977377e-01
76 2 6.670640877559495e+01 7.599605966741423e+01 1.278697813745064e+00 -2.977887102922356e+00
77 1 6.032431131444051e+01 6.807254972140227e+01 -2.944012227143548e+00 3.622200714644512e-01
78 1 5.664590521310344e+01 6.255187950852608e+01 -8.300793281533601e-01 1.439420772414943e+00
79 1 6.893753753797485e+01 6.759710490202185e+01 -2.070054270358198e-01 1.906691309029441e-01
80 1 5.976695325154180e+01 6.255975795915088e+01 -2.130360136293408e+00 -2.086901336305116e-02
81 1 5.451751635518662e+01 6.502310209468433e+01 -2.506421682392244e+00 2.055043855597556e-01
82 2 1.014925880308653e+02 6.120284234448690e+01 -7.926025892099682e-01 4.323044732781032e-01
83 2 5.666064259955243e+01 5.792818866773215e+01 -1.102079013357408e+00 3.887281351683797e-02
84 2 5.822977124399680e+01 6.495645716321356e+01 -1.917961797114961e+00 -2.420538122679314e-01
85 2 6.065463021542972e+01 5.773881017397165e+01 -2.100423954491710e+00 -1.150764413446199e+00
86 1 5.781111501144392e+01 5.543794374540087e+01 -2.830013483872846e+00 -4.671066809229550e-01
87 2 6.832573078658218e+01 5.545659845785670e+01 -1.984061449910641e+00 -5.144621844927265e-01
88 1 6.612892959931801e+01 7.103419191773517e+01 -3.821959829817837e+00 -7.863593780589478e+00
89 1 5.898573213361555e+01 6.676699649677708e+01 -3.525075655401597e+00 6.946445002259150e-01
90 2 6.897596484552754e+01 6.365711457969127e+01 -1.950560847300109e+00 -1.629899956944941e+00
91 1 6.064074880764297e+01 6.045355395017642e+01 -2.589232650439749e+00 -1.133201008630640e+00
92 2 6.207817142778029e+01 5.390032085321377e+01 -1.797707362941740e+00 -1.220200846598060e+00
93 2 5.630848927432167e+01 7.396884045495165e+01 7.403657878371903e-01 7.374273638479538e-01
94 2 6.120857507154057e+01 5.494890846956844e+01 -1.964671623905154e+00 -8.082496929595754e-01
95 2 6.253515621193146e+01 6.103744795624378e+01 -3.324122905538270e+00 4.974359447461490e-01
96 1 6.555978807899318e+01 7.266381544652441e+01 4.404890719287248e+00 -6.134052007516046e+00
97 1 6.700791329462145e+01 5.970635250707866e+01 -3.831552656535810e+00 -2.938754642808726e-01
98 2 6.592587190883616e+01 5.661527965653449e+01 -2.808347616791240e+00 -9.826264842192189e-01
99 1 5.541088058402877e+01 7.574002043094831e+01 6.816274651806076e-01 2.371455985905260e-01
100 2 5.569022280389454e+01 6.298836922210777e+01 -1.088406078345917e+00 7.696245874881634e-01
101 1 6.316872567995642e+01 6.277069884142966e+01 -1.703184314141589e+00 1.819227555217045e-02
102 1 5.546152951270912e+01 7.471736530537362e+01 1.138484444768768e+00 1.277031900232618e+00
103 1 5.653401454125610e+01 6.569325381360599e+01 -1.814856732161579e+00 -1.209897535502315e-01
104 1 5.750588070428860e+01 6.865910893022287e+01 8.359095256874396e-01 -3.179451208133164e+00
105 1 5.561023025070578e+01 6.857556436607587e+01 2.104496342937073e-03 1.149659324438384e-01
106 1 5.675136277612572e+01 6.352441105345150e+01 -1.359249389461533e+00 7.675236628445808e-01
107 1 6.422126222067467e+01 7.231811209960351e+01 1.015107671258433e+00 -2.860653109219851e+00
108 2 6.712040355013998e+01 6.167161261791801e+01 -3.670173926359937e+00 -2.037311038056269e-01
109 2 6.363901577691623e+01 5.916248805716430e+01 -3.661950998809155e+00 -9.182126966626393e-01
110 2 5.358641784455220e+01 6.321950577979437e+01 -8.242876290386114e-01 -2.561163602458069e-01
111 1 6.037788013714984e+01 5.873671689756799e+01 -1.187541238810176e+00 -8.791829845127098e-01
112 1 6.299330950349458e+01 5.609410197631845e+01 -4.063049448700630e+00 6.373242059278502e-01
113 1 5.507688026441549e+01 6.205680937764218e+01 3.059714601246652e-01 2.423537302841773e-01
114 2 6.914861800623902e+01 7.049837321340074e+01 -2.160203858797050e+00 4.955805366306357e+00
115 2 6.406810379280894e+01 6.599921767367177e+01 -1.889523032661250e+00 -1.458575326784119e+00
116 2 6.572589230591468e+01 6.473312016081364e+01 -2.441890260121664e+00 -1.014433463216015e+00
117 1 6.140038640066332e+01 6.106564735564005e+01 -3.248029591383422e+00 -9.828220221987986e-01
118 2 5.689240088592578e+01 6.469630108746185e+01 -1.861745013836325e+00 1.302254531011070e-01
119 1 6.650474281140312e+01 7.708328863557615e+01 3.013533755380713e+00 -2.093084066923753e+00
120 2 5.564109706524761e+01 6.628552646346344e+01 -1.718313314092762e+00 1.052198602440928e-01
121 1 6.729200306559996e+01 6.903752414400293e+01 -7.776503522620842e-01 -2.662409288824474e+00
122 1 5.860862333499022e+01 7.393107604926276e+01 1.985987112325411e+00 1.611183422642641e+00
123 2 6.215359561948683e+01 6.319564765545890e+01 -2.051914116105077e+00 -1.083766993425455e-01
124 2 6.440404794403730e+01 6.474919630267136e+01 -1.617054817752444e+00 -1.412876069623243e+00
125 1 6.454792852604935e+01 5.531706363197408e+01 -2.249665350270313e+00 -7.458676115989281e-01
126 1 6.175664205203782e+01 5.783399828862913e+01 -2.014626980930904e+00 -2.700987781366278e+00
127 2 6.795304702315293e+01 6.993147058687731e+01 -1.682987736155430e+00 -7.598291193313670e-01
128 2 6.463704052662160e+01 7.333051910435269e+01 3.731539138157439e+00 -4.317758245069359e+00
129 1 6.025866365498116e+01 6.484631847410053e+01 -2.176713986620448e+00 -2.006279159521024e-01
130 2 5.879620125804268e+01 7.501979595516391e+01 7.983730464678492e-01 8.785845439886331e-01
131 1 5.763509971635017e+01 6.395624955415911e+01 -1.308823445918098e+00 -1.307576548308792e-03
132 1 6.079620429874063e+01 5.950954564291654e+01 -1.155218917583149e+00 -1.367010734070593e+00
133 2 6.238754627075018e+01 7.137365596508266e+01 5.573643433818786e-01 -1.713135829685340e-01
134 2 7.016997163187521e+01 6.968204533947410e+01 -7.109636338835044e-01 1.828479701500855e-01
135 1 5.971220887390453e+01 5.719828073661443e+01 -1.963521813238807e+00 -5.827136017703290e-01
136 2 6.020747054374868e+01 7.280414419490471e+01 1.595200965402921e+00 2.073995933256612e+00
137 2 6.241521952965137e+01 7.275734162703465e+01 1.779860841191507e+00 -4.006978665005818e-01
138 2 5.396892140845835e+01 6.188125168310016e+01 5.521561175338127e-02 -5.226157921011700e-01
139 2 6.719617560792469e+01 5.467442970473198e+01 -1.704305516717179e+00 -1.811824940803526e-01
140 2 6.828261653183480e+01 6.858510522898325e+01 1.273447405232459e+00 9.596888780055276e-01
141 2 6.479669586611436e+01 5.732121303215351e+01 -2.005863457505561e+00 -2.083618990522773e-01
142 1 6.510019499808421e+01 6.567601302492297e+01 -1.600459946094822e+00 -1.086159831162858e+00
143 1 6.312418003172343e+01 6.942115482567864e+01 -2.286500411803406e+00 -1.881865717265081e+00
144 2 6.702683072906086e+01 6.791698407304177e+01 -2.719133981951401e+00 -2.152245197741292e+00
145 2 5.476502760127966e+01 6.394208914512220e+01 -1.518989274755477e+00 2.051443737437884e-01
146 1 5.776987189800262e+01 5.638585129091571e+01 -2.859887843184324e+00 -3.565761931041758e-02
147 2 5.914467007787822e+01 6.155973152364582e+01 -2.124442080973987e+00 -3.427506927956782e-01
148 1 6.800819909136160e+01 6.752919774304067e+01 -1.170457553969073e+00 1.375690774585268e+00
149 2 6.712696368912491e+01 7.397232237830600e+01 1.928491246872624e+00 -2.130307699005859e+00
150 2 6.297152572118881e+01 7.490868059867927e+01 3.470753555227843e+00 -1.656740298559574e+00
151 2 5.977386730016170e+01 7.413769613815481e+01 2.051644320782159e+00 1.756772430224707e+00
152 1 6.162940705296278e+01 6.196928830552807e+01 -1.212246314311235e+00 -1.849390984186122e+00
153 2 6.791413627981993e+01 6.277456079993341e+01 -2.929473778803760e+00 -1.047666102113371e+00
154 1 6.404045086855496e+01 7.514335875934027e+01 3.271751555023247e+00 -3.491287833041054e+00
155 1 5.419286351215057e+01 5.776922118461236e+01 -1.296366578559256e+00 -4.064289611697368e-01
156 2 6.422833105710954e+01 5.425425893155918e+01 -9.224243304388465e-01 -7.197227270383745e-01
157 1 6.133313009012373e+01 7.309033574996407e+01 1.840905422258101e+00 6.562314624343283e-01
158 1 6.388219745186196e+01 7.418748902428825e+01 3.570074133027931e+00 -3.324056453384769e+00
159 2 6.194308786920805e+01 7.402306594407693e+01 2.544543751915242e+00 -2.261834740504729e-01
160 1 6.277800780859810e+01 5.987798139057745e+01 -2.834942750774948e+00 2.968368242596076e-01
161 2 5.372538678346159e+01 5.372528511407982e+01 -1.426703200155874e+00 -4.004395182752897e-01
162 1 6.571348410573495e+01 7.545123870963900e+01 1.289271154858662e+00 -1.761605988429021e+00
163 1 5.371383962889605e+01 5.854477668689102e+01 -9.181664006076706e-01 -2.690004338627730e-01
164 2 6.711983160554202e+01 5.855395867562482e+01 -3.038102444747657e+00 -6.197962669831081e-01
165 2 6.711862483023785e+01 5.726603030537186e+01 -2.808574179128888e+00 -7.200539901059175e-01
166 1 6.394191959073117e+01 7.144435433733196e+01 2.404771407137144e-01 -2.328165844741534e+00
167 1 6.696904461811717e+01 6.337202336155227e+01 -2.091065029072464e+00 2.022409239022767e-01
168 2 6.600031928913458e+01 5.928798953167878e+01 -3.353245102070174e+00 -9.041171113133417e-01
169 1 5.812836272333917e+01 6.188263541800411e+01 -2.361855584391751e+00 -6.461723774324104e-01
170 1 6.172526725856344e+01 6.644969571589590e+01 -2.638080772828568e+00 -5.650541659965577e-01
171 2 1.022656126330563e+02 6.456085188053677e+01 -1.629077791049002e+00 -2.825743802188411e-01
172 2 6.314155426636010e+01 6.508757802338563e+01 -1.864963158266578e+00 -7.686462186205552e-01
173 1 6.619579287728739e+01 7.195735553028366e+01 5.531966847984162e+00 -7.937778193998269e+00
174 2 6.947032287575568e+01 7.274231190074590e+01 4.951051107141243e+00 5.003086812035279e+00
175 2 7.028633406916511e+01 7.098945154113281e+01 2.823657166446356e+00 -3.384480078010307e+00
176 2 6.725647687984859e+01 6.529363191752650e+01 1.454766175538939e+00 -1.173955855547091e-01
177 1 6.987410228522123e+01 7.464838987733935e+01 2.081903127690235e+00 -2.028734006603276e+00
178 2 5.445937525637420e+01 7.508546591354154e+01 8.039435373184846e-01 -4.736415980222557e-02
179 1 6.543606149147203e+01 5.561671971633574e+01 -2.957987824305160e+00 -2.485136010251121e-01
180 1 5.995597948209167e+01 6.671892674609296e+01 -3.279771955287902e+00 -2.126312856713853e-01
181 1 6.189568162164554e+01 7.512739724140629e+01 3.488190917686997e+00 -6.223963816376250e-01
182 1 5.578018776573074e+01 6.006204001947440e+01 -1.636590681022212e+00 -2.131380712518530e-02
183 2 6.071948674861166e+01 6.589307120811975e+01 -2.488279342103960e+00 -3.747155502473081e-01
184 1 6.803715971046240e+01 7.452101136582242e+01 1.049650246659181e+00 4.187098915874066e-01
185 1 6.142195244172831e+01 5.692641602021117e+01 -2.125164607067044e+00 -1.636450633220806e+00
186 2 6.750081489993529e+01 5.340715802042453e+01 -1.162743925697981e+00 -2.073465526579296e-01
187 2 6.099944501933158e+01 6.722651794435112e+01 -3.432872627126072e+00 -5.355542896178047e-01
188 1 6.237333551929382e+01 5.708295647320685e+01 -1.439637593116798e+00 -3.014325245520991e+00
189 2 5.592533643883434e+01 6.961854560492924e+01 9.857665587461087e-01 6.600639790840318e-02
190 1 6.480922463584324e+01 5.624746603011524e+01 -3.901980983563416e+00 -2.690806004616781e-01
191 2 5.870400457312554e+01 6.369990888139734e+01 -1.228369287385545e+00 -5.665769738648304e-01
192 1 6.821250755360147e+01 6.588835242099934e+01 -2.008729128766848e-01 1.309271837627759e+00
193 2 5.899616120805965e+01 7.211895550468965e+01 1.646841885196940e+00 2.628361046325292e+00
194 1 6.641954536084651e+01 7.484693129663093e+01 -4.849132219509987e-01 -3.614450994843771e+00
195 1 5.459409382214511e+01 5.601445189418833e+01 -1.622606870951804e+00 -1.635044458337094e-01
196 2 5.515581978298653e+01 6.097867784456478e+01 -2.430093656646701e+00 1.895088806892956e-02
197 2 6.280768977390462e+01 5.813940072956679e+01 -2.943641070578273e+00 -1.854210127547110e+00
198 1 5.682518735179617e+01 7.034172558584046e+01 1.716270034750734e-02 6.486253652468560e-01
199 2 6.496816874191389e+01 6.231264399836773e+01 -2.005897842741265e+00 -2.488744871310028e+00
200 1 6.135200364811370e+01 5.871088456283296e+01 -1.049539023586509e+00 -2.019492449283307e+00
201 1 6.950617232817707e+01 6.139781230674399e+01 -3.481057650517565e+00 -1.984055195015648e+00
202 1 5.697384563897081e+01 6.939730705453609e+01 2.629035068817848e+00 -3.960269793707503e-02
203 1 5.737630068211618e+01 7.684053622384623e+01 1.900237907165518e+00 1.104552909752747e-01
204 2 5.472684283572472e+01 7.017858125013609e+01 1.450166962408658e+00 1.191344307172675e+00
205 1 5.652340280116312e+01 6.858222633459782e+01 6.200078275857561e-01 1.080872252008147e+00
206 2 6.597725053147154e+01 5.793524702939805e+01 -2.654163191010791e+00 -7.033884990767045e-01
207 1 5.866645358241282e+01 7.608024965596117e+01 -4.665206032886356e-01 4.749725766620447e-01
208 1 6.356910372871528e+01 7.592334651962040e+01 3.937728617772515e+00 -2.122145538504533e+00
209 1 6.900613679442885e+01 6.943951068004125e+01 3.660376837533252e-02 2.680212434500238e+00
210 2 6.839544979470512e+01 7.349011844054858e+01 1.714602221906491e+00 5.402236465217412e-01
211 1 5.973690796212398e+01 6.067504875841919e+01 -2.291788368964075e+00 -6.542859789651101e-01
212 1 5.867922424485640e+01 5.917196637227990e+01 -1.408910671590498e+00 -2.359474822027642e-01
213 1 5.539241146172132e+01 5.656356683501404e+01 -6.421748761131196e-01 -6.824557749977920e-01
214 2 6.509854385027458e+01 7.160766489865047e+01 8.283912689246109e-01 -3.320156256887905e+00
215 1 6.737359113405707e+01 7.512998238897011e+01 -9.371267447227432e-01 -2.922067922175632e+00
216 2 5.442524590655424e+01 5.489323180263138e+01 -1.481383928257102e+00 -6.401755699927822e-01
217 2 6.658084785368551e+01 6.991889664064031e+01 -2.503648601107458e+00 -3.786637511864655e+00
218 2 6.214874709967924e+01 6.989590284332830e+01 -1.129321418707233e+00 -2.920656709048375e-01
219 2 5.559203348417245e+01 6.502900570481616e+01 -2.331880167333693e+00 4.901082734493650e-01
220 1 5.655020943059907e+01 7.122589989854740e+01 5.569207202634994e-01 1.337506904290958e+00
221 1 5.468500028093287e+01 5.857917772031676e+01 -1.316195668900272e+00 -1.102023809973718e-01
222 1 6.249825017426087e+01 7.736703913166194e+01 2.726691565673240e+00 -8.265712259341796e-01
223 1 5.788238340984655e+01 7.222921670943835e+01 1.601431764170617e+00 1.062936072912693e+00
224 1 5.664100051640863e+01 5.976159053644670e+01 -1.590844948046463e+00 -2.309658571505415e-01
225 1 5.938919080784080e+01 5.410370169638501e+01 -1.986171122617350e+00 -4.974240605341151e-01
226 2 5.504484407608001e+01 7.363818875325605e+01 6.241254785080081e-01 1.474389529022982e+00
227 2 5.536210242586068e+01 5.768397122425415e+01 -1.167225367717883e+00 -1.346313595134124e-01
228 1 6.584866261519308e+01 7.771345308364371e+01 2.113544468223908e+00 -2.251453537618477e+00
229 1 6.881235268399797e+01 7.616232684433439e+01 2.437827114128106e+00 -4.957395782582109e-01
230 2 6.424321865014224e+01 6.949880929318148e+01 -2.525760257703084e+00 -3.616704534895539e+00
231 1 6.039405184789643e+01 6.902405204480348e+01 -2.735333394661533e+00 1.070476026388955e+00
232 1 1.022051772624010e+02 6.793519320303282e+01 -1.351872444796380e+00 1.425365799860853e+00
233 2 5.861998777098854e+01 5.714032347820647e+01 -1.360240518733500e+00 -1.032585782955096e+00
234 2 6.009236453678057e+01 7.144152690360259e+01 9.356362616268092e-01 2.017897132809864e+00
235 1 6.930802082014492e+01 7.162243779797809e+01 9.674524486076947e+00 4.307031423935287e+00
236 1 6.108230693726801e+01 6.961489725100525e+01 -1.025903146918944e+00 -1.321713710432930e-02
237 1 6.438301191241393e+01 7.066573198155524e+01 -1.314782049803098e+00 -2.669641187785467e+00
238 1 1.019270945258100e+02 6.564334320818503e+01 -9.275594949735982e-01 3.489473637307096e-01
239 1 5.595319515371083e+01 6.402765154215408e+01 -1.665440090415805e+00 6.195473128965059e-01
240 2 5.840920194229422e+01 6.774994713171610e+01 -3.332313196336814e+00 2.054730999717611e+00
241 2 6.375812505432850e+01 6.720371838894205e+01 -2.072231946747002e+00 -1.773734504659310e+00
242 1 5.781983519925625e+01 5.942363597438212e+01 -1.575892375867057e+00 -1.365857999075720e-01
243 2 5.891844979797600e+01 7.080517998665658e+01 4.795278233368796e-01 2.697118477244220e+00
244 1 5.701920469340633e+01 5.895149672155978e+01 -1.306766943920373e+00 -2.057537822445292e-01
245 1 5.488970073445681e+01 6.912641202275569e+01 -8.807303976962232e-02 7.930180952949627e-01
246 2 6.003292583780044e+01 7.008826693763073e+01 1.658379953870444e-01 2.292968105347764e+00
247 2 6.468830963458028e+01 7.758576072711709e+01 2.127464861121212e+00 -1.056944291022073e+00
248 2 6.044898726755194e+01 6.160725301552158e+01 -2.719712204163106e+00 -6.574904866220583e-01
249 1 5.459272257182963e+01 6.282907659582513e+01 -7.641783287111344e-01 -1.481862764749791e-01
250 1 5.360865927455989e+01 5.947477742322081e+01 -7.169201404557252e-01 -2.842967480136357e-01
251 1 6.711052608173709e+01 7.211675057289837e+01 7.804644295084072e+00 -3.053691141248680e+00
252 1 6.313897352074966e+01 5.430721624335099e+01 -1.291966866006494e+00 -2.737912375019690e+00
253 2 5.473834844485389e+01 5.967126289136809e+01 -1.111724799878517e+00 -7.986962913079068e-02
254 2 6.614971028615371e+01 6.599143123527017e+01 -6.190869201622407e-01 -2.138708495643661e+00
255 1 6.619224194974817e+01 5.517754029694780e+01 -2.144536824475747e+00 1.548992493847484e-02
256 1 6.745091350826601e+01 7.293310955658454e+01 3.622826986977794e+00 -2.084694586546194e+00
257 1 6.099997439118898e+01 7.470528935362665e+01 2.759297857791622e+00 6.896143143710119e-01
258 2 6.774506775571616e+01 6.050803528638335e+01 -3.685790873213067e+00 -8.868317742405090e-01
259 2 6.841759179514901e+01 6.152679587310748e+01 -3.723534779727344e+00 -1.575475836125335e+00
260 2 6.497451298057263e+01 7.459767929516046e+01 3.863574829568671e+00 -3.539826083455469e+00
261 2 6.331772743047414e+01 7.050282766907479e+01 -8.842317410109022e-01 -1.871501992193385e+00
262 1 5.746705985933593e+01 5.721953150515926e+01 -7.620005116180301e-01 5.755059120040088e-01
263 2 6.234700843730430e+01 6.758512952940043e+01 -3.466558555043092e+00 -1.080779359118836e+00
264 1 5.395425452483879e+01 6.715268419355537e+01 -1.847971250374423e+00 1.069654581785143e+00
265 2 5.997864920418572e+01 6.370592825831125e+01 -1.303050744979867e+00 -2.320393906351271e-01
266 2 6.782487336205998e+01 6.412991482075942e+01 -1.580780777311599e+00 -1.375731259199282e+00
267 1 5.932907092313985e+01 6.461623181159386e+01 -1.942692993032383e+00 -2.286694287616501e-01
268 2 6.137784562703157e+01 6.850858759359809e+01 -3.272211051742103e+00 -7.586518310259101e-01
269 2 5.969258561166568e+01 5.959233901415983e+01 -1.496300238849309e+00 -7.045829632690735e-01
270 1 6.205605460659878e+01 5.621070168166874e+01 -3.811897219166391e+00 -2.484877728132070e+00
271 2 5.790789191688150e+01 6.992015898494539e+01 8.295463660508487e-01 2.984071248678410e+00
272 2 6.833613742002282e+01 5.790618441119930e+01 -2.925869365554438e+00 -1.002236546441372e+00
273 2 6.127598105491828e+01 7.202536544834166e+01 1.115021405479198e+00 8.209733545804467e-01
274 2 5.941821156971718e+01 6.569539906070750e+01 -2.412576216240891e+00 1.478819268091220e-02
275 2 6.722236203289488e+01 7.105605793600473e+01 -6.675233858189661e+00 -3.541518229056125e+00
276 2 6.510450536471122e+01 6.685172661071543e+01 -1.780047743928159e+00 -1.725415962316809e+00
277 2 5.824434576216115e+01 5.441608261086369e+01 -2.340283822063741e+00 -4.354023450520403e-01
278 1 6.576875962118405e+01 6.041926384953977e+01 -2.985717817232817e+00 -6.806851271127131e-01
279 2 6.370426744340703e+01 6.049119191861775e+01 -3.374049442462138e+00 -6.477312667424142e-01
280 2 5.601626722918308e+01 7.272604461850966e+01 4.725766384669964e-01 8.548652835915239e-01
281 2 5.762539136266573e+01 7.576003344451807e+01 1.951252997208666e-01 -2.174561123030606e-01
282 2 6.186739596193526e+01 6.532024509815075e+01 -2.055696687961269e+00 -5.227402278391340e-01
283 2 6.470673952256169e+01 6.810768645932015e+01 -3.061243369035216e+00 -1.658701974776197e+00
284 1 5.956167757272409e+01 7.588444021669517e+01 7.616409487182158e-03 1.030892381077893e+00
285 1 6.623164085811479e+01 6.711158093493364e+01 -1.925188908557371e+00 -2.353520357638489e+00
286 1 7.033718048547736e+01 7.381838953324988e+01 -1.635805032283303e-01 -5.712256180176546e+00
287 1 5.693495022562427e+01 7.206628865406108e+01 9.330625524679061e-01 1.256331013735830e+00
288 2 6.900318293878499e+01 5.662206645011291e+01 -2.638071085592167e+00 -5.018668785569864e-01
289 2 6.887453102710882e+01 6.498326570157529e+01 -2.771068119723327e+00 -3.358773875898954e-01
290 1 6.014590281607346e+01 5.468338329698404e+01 -2.164439984594664e+00 -5.222140146815410e-01
291 1 6.027302271843264e+01 5.565986247601975e+01 -3.028965040488256e+00 -7.987833695084667e-01
292 2 5.429788789291073e+01 6.605363720423544e+01 -1.263228204743037e+00 6.273542520068914e-01
293 1 5.898606040972871e+01 6.966918264722831e+01 6.693072073296082e-01 1.924341666700628e+00
294 1 6.651515369733529e+01 7.286020642844188e+01 3.575738965781606e+00 -6.863565640432348e+00
295 1 6.438457158405225e+01 7.646429078345429e+01 2.928691743339340e+00 -1.220496580423645e+00
296 1 5.598564249850465e+01 6.186202780609010e+01 6.000775468048481e-01 1.344199484819499e+00
297 1 5.771506586484607e+01 6.107054329558787e+01 -2.536504381548993e+00 -2.143749289506678e-01
298 2 5.713021855398037e+01 6.763567684031737e+01 -2.997208989836228e+00 -1.001280791297367e+00
299 2 5.653551873527582e+01 6.090269777045098e+01 -2.284758569046288e+00 -1.858331182188598e-01
300 2 5.766059117581382e+01 7.117314091264174e+01 -9.207721589666472e-02 1.405126825948444e+00
301 1 6.080720902096280e+01 7.380432048477957e+01 2.240912661064854e+00 1.219260435014249e+00
302 2 5.588087338161089e+01 6.753656899847265e+01 -2.162366209968798e+00 -6.739173967044384e-01
303 2 6.620864091150077e+01 6.254136054380869e+01 -2.989277550473993e+00 9.047613659353979e-01
304 1 5.717483927125336e+01 6.182627094378019e+01 -2.502514227892549e+00 1.132406384997098e-01
305 2 6.344408725270981e+01 6.840244506648871e+01 -3.592781555936644e+00 -2.277495550558802e+00
306 1 5.624810336673061e+01 5.691551240790996e+01 -9.783551644983423e-01 4.470143812157040e-01
307 2 6.480248296324754e+01 5.983447685738304e+01 -3.390724528981651e+00 -1.048478562665848e+00
308 1 6.357219507826550e+01 5.517999213770297e+01 -2.119873182310936e+00 -2.241676058433645e+00
309 1 5.777496863664047e+01 6.674706238845229e+01 -1.393460831178800e+00 4.183651355202013e-01
310 1 1.020074518914176e+02 6.657464365088047e+01 -1.367584411923471e+00 5.754166922568980e-01
311 2 6.495307415391177e+01 6.360548814468717e+01 -7.740589490647238e-01 -2.126158928782214e+00
312 1 5.453082265670189e+01 5.691537084336962e+01 -5.453841850298431e-01 -8.203143906962719e-02