ITEM: TIMESTEP
572
ITEM: NUMBER OF ATOMS
2048
ITEM: BOX BOUNDS xy xz yz pp pp pp
52.78774292968965653472 104.2898523509691273148 2.786531081068801540823
52.78774292968965653472 101.503321269900325774 0
-5e-01 5e-01 0.0
ITEM: ATOMS id type x y nonaffx nonaffy
1 1 6.245693002885858e+01 6.222743757715545e+01 -2.807813487068883e+00 1.333998139417336e+00
2 1 6.225880661641198e+01 6.439999430948136e+01 1.400665563586709e+00 -2.432912143048381e+00
3 2 6.585597335435919e+01 7.387608666451474e+01 6.098163463510773e+00 -6.351354538362092e+00
4 1 6.383698198336375e+01 5.614174350609510e+01 -1.185880304330754e+01 -6.094179781173406e+00
5 1 6.104167893408763e+01 5.616190706078761e+01 -8.824868702072118e+00 -8.664293893525372e+00
6 2 6.347168113955864e+01 7.719843404198501e+01 5.445796934391105e+00 -4.141062315705978e+00
7 1 6.591321909333081e+01 6.145438323211877e+01 -1.188331715007003e+01 4.345016953929799e-01
8 2 6.080697946901771e+01 6.295892654423616e+01 -2.635276982417326e+00 -2.729281503170811e+00
9 1 6.655127295753283e+01 6.068675823996907e+01 -1.289005529960083e+01 3.368410924388675e-01
10 1 6.577787307018799e+01 6.807669059144992e+01 4.849429647073442e+00 -4.590428408540108e+00
11 1 6.889471860905311e+01 7.465594923719983e+01 4.958661133015824e+00 -6.228412599302525e+00
12 2 5.473578893592911e+01 7.241846318885645e+01 4.502141294456132e+00 -3.711980387426067e-01
13 2 5.849023654390545e+01 6.044748700388779e+01 -2.784929389260456e+00 -1.548134742312840e+00
14 2 6.721719494443133e+01 6.669963010619296e+01 6.022707834940970e+00 -3.434254207377120e+00
15 2 5.456938371322937e+01 6.813630585879260e+01 3.296032342126661e+00 -1.040646622585290e+00
16 2 5.487290528013956e+01 5.380136577223453e+01 -6.823376298113664e+00 -4.475432671248081e+00
17 2 6.332508589312047e+01 6.393893544065433e+01 2.498855436539257e+00 -1.523798309506104e+00
18 2 5.786583539616376e+01 5.838935320698285e+01 -2.749373738920536e+00 -1.626762163253732e+00
19 2 6.233432459871141e+01 5.528202826041544e+01 -1.143256009256237e+01 -6.523588322363953e+00
20 2 5.756368125660694e+01 7.456550073884162e+01 4.529065982921770e+00 -1.609901771063549e+00
21 1 6.032578391471296e+01 5.673219875792770e+01 -6.713730938234771e+00 -5.449674332461194e+00
22 2 6.526900504534251e+01 7.040892430183872e+01 5.543680503945697e+00 -5.471096551692820e+00
23 2 6.477624685178425e+01 5.870261584711479e+01 -1.525658015072045e+01 -6.037277550960445e+00
24 1 6.012746697662605e+01 7.536366005034567e+01 5.670295165123055e+00 -1.365541766295425e+00
25 2 6.341141355473226e+01 5.715462233697479e+01 -1.382876021430675e+01 -5.854577620889711e+00
26 1 6.300710310684638e+01 5.349729747862111e+01 -9.696732927306078e+00 -6.706184563389263e+00
27 1 6.839391835499360e+01 7.547925946345511e+01 4.137790924245147e+00 -6.023795199754908e+00
28 1 6.784371282800159e+01 5.665135116717219e+01 -1.547359238915977e+01 -8.637533201110173e+00
29 1 6.324924148214120e+01 7.221820863088350e+01 5.468230122816357e+00 -4.732321140600242e+00
30 1 6.663734327715424e+01 6.436469552563013e+01 3.973536473757094e+00 1.209441854319352e+00
31 1 5.939033562467790e+01 5.642645196558107e+01 -7.467979276286030e+00 -5.448916466502247e+00
32 2 5.910090082335429e+01 5.534209219538992e+01 -9.527661952473675e+00 -4.952090771701116e+00
33 1 5.918283203550874e+01 7.337524037986810e+01 5.019679206306471e+00 -8.127326263971051e-01
34 1 5.961061030257846e+01 5.337155557106176e+01 -8.971228338788752e+00 -6.371818453519035e+00
35 2 5.331486665880240e+01 5.698265565862148e+01 -1.828501610082198e+00 -3.046473541105347e+00
36 1 6.936985442992784e+01 7.544596020747831e+01 4.256401181027073e+00 -6.536988177421935e+00
37 2 6.803142792812807e+01 5.936765399169071e+01 -1.902527160774760e+01 -6.143431911700437e+00
38 1 5.946254934937591e+01 6.766968617228827e+01 3.790335634204939e+00 -5.100903716951057e-01
39 2 6.160702901771462e+01 6.012607019356319e+01 -7.201998602445978e+00 9.941794568806855e-01
40 2 5.723636207898274e+01 7.328443354387470e+01 4.480780502234167e+00 -1.200757439510005e+00
41 2 5.679208446035298e+01 5.474887347305918e+01 -8.173743333986089e+00 -3.566615144786383e+00
42 2 6.478255361854679e+01 6.120460942804464e+01 -9.920830038876829e+00 -6.470308886825124e+00
43 2 6.146381681520853e+01 7.723907550921535e+01 5.104212762243828e+00 -3.128293018789685e+00
44 1 5.830259757608378e+01 7.320579147569684e+01 4.571611625616212e+00 -5.091625670805764e-01
45 1 5.736815500579398e+01 6.597098847173920e+01 7.803347659196919e-01 5.826466021243164e+00
46 1 6.596255527619965e+01 6.371845906858054e+01 3.045778399756987e+00 1.905482996500361e+00
47 1 5.667907747488922e+01 6.668008675609764e+01 -3.813759375209592e+00 2.109228658337686e+00
48 1 6.382636079990444e+01 5.817217972493504e+01 -1.502678291248900e+01 -5.234638827900417e+00
49 2 6.539969745619251e+01 6.918412971851293e+01 5.666936994990922e+00 -4.850444367844215e+00
50 1 5.845035044050375e+01 5.614206745377079e+01 -7.789730531763658e+00 -3.032176022209009e+00
51 1 6.396292455713642e+01 6.301250189595363e+01 -2.748902414576219e-01 -3.268829903680942e+00
52 2 5.759997474419975e+01 6.296442393107087e+01 -2.232963877850382e+00 6.368593902185576e-02
53 2 6.693218395196094e+01 5.602377441833789e+01 -1.454475518023076e+01 -8.674516167969319e+00
54 1 5.565896460605430e+01 5.457342509279657e+01 -8.252565158782875e+00 -4.460917495164296e+00
55 2 6.823126340083954e+01 7.225565391636042e+01 8.346362535753654e+00 -6.415251736475963e+00
56 1 5.829528519125927e+01 6.616367093981484e+01 2.807018968821936e+00 -1.893819000919822e+00
57 1 6.821432291965911e+01 7.116148054611092e+01 5.439081117804098e+00 -6.288078530229261e+00
58 2 6.242107982244034e+01 7.631946232063719e+01 5.836388365763385e+00 -3.556892795297650e+00
59 1 6.834905229590294e+01 6.685214035023853e+01 6.825821194078194e+00 -3.381121671886628e+00
60 1 5.829798789773294e+01 6.907289949424741e+01 3.985643628208915e+00 7.331231039952271e-01
61 1 5.576606717632947e+01 7.081086206009398e+01 5.193847358784134e+00 -1.165322447100815e+00
62 1 5.573830312556180e+01 7.179435092756587e+01 3.993127294973008e+00 -8.179160865735250e-01
63 2 5.376933697162256e+01 6.064095788993899e+01 -2.314376328263301e+00 -2.306398348267241e+00
64 2 6.549761586761215e+01 7.671017566706388e+01 5.579977281216654e+00 -5.345767451056440e+00
65 1 6.477016379555008e+01 7.582216596015648e+01 5.484469654984177e+00 -5.082139366604743e+00
66 1 5.498856766582438e+01 7.132965234133489e+01 4.762621737595154e+00 -8.401284238984619e-01
67 1 6.521858946420021e+01 5.479818545020293e+01 -1.203575722811008e+01 -7.848098883441565e+00
68 1 6.215078198664057e+01 5.917386535729036e+01 -6.638214001869676e+00 7.623147557995844e-01
69 1 5.478363884176740e+01 6.709193663893163e+01 1.395875544925828e+00 -7.255410195065296e-01
70 2 5.644347359749319e+01 7.530793754602540e+01 4.227148288457557e+00 -9.772218635771130e-01
71 2 6.360431498089885e+01 6.189993164694376e+01 -5.693988537915254e+00 -1.959167741094330e+00
72 2 5.573020871246109e+01 5.902165131368137e+01 -2.310784214380931e+00 -1.322704882522415e+00
73 1 6.817334236016750e+01 5.440367144188447e+01 -1.240736791088180e+01 -9.599629708855757e+00
74 1 6.234952541378212e+01 6.888542257148843e+01 3.837837671292308e+00 -1.630994583356084e+00
75 1 5.870974592912800e+01 6.271028872492735e+01 -3.764374638191979e+00 -3.758900484006810e-01
76 2 6.666829525811301e+01 7.609752079235527e+01 5.364192252614760e+00 -6.331180730776256e+00
77 1 6.024804595296983e+01 6.820618914286895e+01 3.950471239266939e+00 -1.266876233226475e+00
78 1 5.655723491852827e+01 6.265098858142321e+01 -1.071514475625968e+00 1.438106480807311e+00
79 1 6.883697838132808e+01 6.767770679373913e+01 7.624658282554769e+00 -4.960583499442571e+00
80 1 5.967044350337019e+01 6.268027857127258e+01 -4.075141044139810e+00 3.126671878064418e-01
81 1 5.441797153889787e+01 6.509621963228506e+01 -1.880273443082688e+00 -1.003435141933747e+00
82 2 1.013979972961960e+02 6.126001743425878e+01 -1.063735436081914e+00 -1.316323703491715e+00
83 2 5.655679541229085e+01 5.802678711228695e+01 -2.851825307782083e+00 -6.503114034393326e-01
84 2 5.811535225093943e+01 6.506413614242940e+01 -3.664509507498015e+00 -2.111721354513139e-02
85 2 6.055292281451639e+01 5.785631037123947e+01 -1.135825812512708e+01 -3.380348054404398e+00
86 1 5.767427229543802e+01 5.555334042349740e+01 -7.123077213190210e+00 -3.611811557585981e+00
87 2 6.821167474113027e+01 5.554853687192417e+01 -1.459387314059752e+01 -9.745675432139151e+00
88 1 6.605909900214458e+01 7.113125810256470e+01 5.753772416251633e+00 -6.793151965067294e+00
89 1 5.888970794039012e+01 6.689926226665918e+01 2.294666073030359e+00 -5.522112269446292e-02
90 2 6.888006313751663e+01 6.371596669013259e+01 3.672547482413060e+00 -5.334766629975827e+00
91 1 6.055195511342001e+01 6.057701770951069e+01 -8.734112223598276e+00 -3.142639609476920e+00
92 2 6.195253371761670e+01 5.403127895632031e+01 -9.850202005008954e+00 -6.973548494461424e+00
93 2 5.628200505914349e+01 7.409020272129150e+01 4.437939305349133e+00 -9.506564303658204e-01
94 2 6.108959056221059e+01 5.508124996333310e+01 -1.037970910869677e+01 -7.863877326611033e+00
95 2 6.244706105719096e+01 6.114157369358841e+01 -8.946180400287517e+00 2.132971479989799e+00
96 1 6.551030233442162e+01 7.276724759829951e+01 7.020322793896947e+00 -6.094713930371355e+00
97 1 6.692933966589291e+01 5.977604799311204e+01 -1.766128045133119e+01 -3.692143013675367e+00
98 2 6.582671721694200e+01 5.671603473851244e+01 -1.453108892232126e+01 -7.084686787287184e+00
99 1 5.538326089317668e+01 7.582608321202603e+01 4.185029998911626e+00 -5.325398705889736e-01
100 2 5.559793158282718e+01 6.307427627470572e+01 -1.365082466494229e+00 -2.613794477815167e-01
101 1 6.307172054447027e+01 6.287445761268180e+01 -1.685772462755889e+00 5.161716011386076e-01
102 1 5.544425725734813e+01 7.483331940000299e+01 4.451511831042319e+00 -5.520074384721518e-01
103 1 5.645457339018859e+01 6.578333032283838e+01 1.026756642818820e+00 7.552680440125370e-02
104 1 5.747103448929016e+01 6.873194509461484e+01 3.962018070643893e+00 -3.394335291160029e-01
105 1 5.556999504411208e+01 6.865421755303431e+01 4.106457404520583e+00 -2.381540964060162e+00
106 1 5.665699630994877e+01 6.361680320154800e+01 -1.905856641405144e+00 3.742607677256977e-01
107 1 6.417882704045675e+01 7.244426786869035e+01 5.694669163904992e+00 -4.916440827000502e+00
108 2 6.703593424536542e+01 6.173472303362450e+01 -1.052075200563598e+01 -4.623279569670158e-01
109 2 6.354840944966596e+01 5.926869668801714e+01 -1.431693721995145e+01 -4.005908938029649e+00
110 2 5.349766806169765e+01 6.327693172518974e+01 -5.587023114567375e-01 -1.849390536623506e+00
111 1 6.027371135731561e+01 5.885450844315848e+01 -3.678508347313204e+00 -2.111720955268633e+00
112 1 6.289564356316408e+01 5.620119323316939e+01 -1.093909464211411e+01 -7.386757263302240e+00
113 1 5.499379664879553e+01 6.213618184310226e+01 9.099323124010865e-01 -1.250075402716635e+00
114 2 6.907757808878182e+01 7.058884920410557e+01 7.099636020852220e+00 -5.522056147874370e+00
115 2 6.398215334537352e+01 6.610184003216624e+01 3.303558147223276e+00 -3.407795011295780e+00
116 2 6.563875899352550e+01 6.482086195461584e+01 1.161752201493828e+00 -2.778995402172797e+00
117 1 6.131359341433434e+01 6.118567917950191e+01 -9.372662228691171e+00 -1.420412457673816e+00
118 2 5.678880011761090e+01 6.478280265464380e+01 -2.567571124310467e+00 -8.316572681994956e-01
119 1 6.651905113021299e+01 7.718266131030367e+01 5.812988412191475e+00 -5.706219301523035e+00
120 2 5.554654944262288e+01 6.635661320314604e+01 -8.477046706830036e-01 -2.092870345816162e+00
121 1 6.721241756290708e+01 6.913075249768900e+01 6.762111554397563e+00 -6.041027736336826e+00
122 1 5.859401780446728e+01 7.409200264499491e+01 5.160776621740815e+00 -9.500284510186038e-01
123 2 6.205790033046136e+01 6.330587180209771e+01 -3.056473186539132e+00 -9.942260756406689e-01
124 2 6.431198743497832e+01 6.485086497929289e+01 2.934083016304100e+00 -3.847818110019294e+00
125 1 6.445239894792248e+01 5.542838266664819e+01 -1.196197448140133e+01 -6.957809369135630e+00
126 1 6.165650010813479e+01 5.795790932307272e+01 -1.255493318977037e+01 -8.845946481332970e+00
127 2 6.787897256835019e+01 7.002386172272739e+01 6.739311476744541e+00 -5.786283579855084e+00
128 2 6.459940527364927e+01 7.345750409450038e+01 6.211056409615873e+00 -5.608914836180348e+00
129 1 6.016564490585976e+01 6.496931267579876e+01 -7.736862004547044e-01 -1.156332993470334e+00
130 2 5.877308464504114e+01 7.518806918403564e+01 4.301117522204673e+00 -1.497190258649736e+00
131 1 5.753893751149629e+01 6.405336467438418e+01 -1.698817005326183e+00 -3.194536098402475e-01
132 1 6.069179731131998e+01 5.963136872576746e+01 -2.701456008475296e+00 -3.792832603326099e+00
133 2 6.235249069026145e+01 7.152297099884628e+01 4.764786750592285e+00 -3.637839489630724e+00
134 2 7.008313153511099e+01 6.974396305575478e+01 8.514247373764508e+00 -7.124302695283147e+00
135 1 5.960615573660289e+01 5.732055356496335e+01 -7.495207014162474e+00 -6.438167656352599e+00
136 2 6.018132311343184e+01 7.295650954250705e+01 5.261038493265493e+00 -1.149696101110845e+00
137 2 6.237864785904581e+01 7.290899174316171e+01 5.570862534484141e+00 -3.670328448513820e+00
138 2 5.388464325783470e+01 6.194065069389773e+01 5.491380380926123e-01 -2.510771845424261e+00
139 2 6.711878821290546e+01 5.475229000769671e+01 -1.284108452719321e+01 -9.371416710408360e+00
140 2 6.819404506418847e+01 6.866846157585141e+01 8.381857348620066e+00 -4.549083712502482e+00
141 2 6.469488782132960e+01 5.742080446343600e+01 -1.471929694162331e+01 -6.308980984000242e+00
142 1 6.501342784021666e+01 6.576925351940957e+01 3.416185834835901e+00 -2.921191833898475e+00
143 1 6.305692502191292e+01 6.953167629396654e+01 4.840364587356992e+00 -2.853546142546128e+00
144 2 6.694834259022252e+01 6.800580410632492e+01 4.734583811170413e+00 -5.202378139177785e+00
145 2 5.467102382245525e+01 6.401579010230708e+01 -1.480299945923602e+00 -9.950017723984476e-01
146 1 5.764592738406990e+01 5.650123156586064e+01 -7.543634865180046e+00 -2.539710642797975e+00
147 2 5.905558525716452e+01 6.167255928307971e+01 -5.658333947120412e+00 -4.084767134291178e-02
148 1 6.791967495558542e+01 6.760354106763917e+01 6.374018567765143e+00 -3.429045986544399e+00
149 2 6.709204504527764e+01 7.408758659286134e+01 5.859488745067289e+00 -6.674591231284547e+00
150 2 6.294203800035527e+01 7.505867645064055e+01 5.966995032271707e+00 -4.069114849894996e+00
151 2 5.975288612999385e+01 7.430901933219818e+01 5.264070119162033e+00 -1.235108096477096e+00
152 1 6.152929751236086e+01 6.209369033577011e+01 -1.723405121248917e+00 -3.503507510959747e+00
153 2 6.782014489370313e+01 6.283905245494137e+01 -3.372657332396791e+00 -2.940403279711988e+00
154 1 6.401253707698415e+01 7.527885443256076e+01 5.851508158298154e+00 -4.969027839944880e+00
155 1 5.407968489511958e+01 5.784061260226958e+01 -2.592112927008789e+00 -2.416871487113433e+00
156 2 6.412423475880600e+01 5.437982410261049e+01 -1.112804576002644e+01 -7.021812702931346e+00
157 1 6.130185458013916e+01 7.324289489963890e+01 5.498708954499836e+00 -2.406141341481124e+00
158 1 6.384984469573882e+01 7.432480580634690e+01 6.020654921059591e+00 -4.937226628515361e+00
159 2 6.190880352129790e+01 7.418028528457651e+01 5.800187827838489e+00 -3.189114464133423e+00
160 1 6.268439062248994e+01 5.998151566957246e+01 -9.380216698990205e+00 1.616234937888509e+00
161 2 5.360028990649427e+01 5.379726804454585e+01 -6.018175517961689e+00 -2.516095400268604e+00
162 1 6.567490022615118e+01 7.557610636921277e+01 5.426413591343173e+00 -5.569544293682940e+00
163 1 5.360421045060877e+01 5.860891469180536e+01 -2.112330345217194e+00 -2.180210663744011e+00
164 2 6.703106001714831e+01 5.863172464468478e+01 -1.567069753522102e+01 -7.017903930111984e+00
165 2 6.702002535758909e+01 5.735226502953694e+01 -1.640618495403396e+01 -8.293349185357986e+00
166 1 6.387685137980139e+01 7.156703099117532e+01 6.508964598016739e+00 -4.351487331549041e+00
167 1 6.687456015244906e+01 6.344346678763496e+01 8.888653407228615e-02 -4.879663429143090e-01
168 2 6.591308396941970e+01 5.938065676335286e+01 -1.515643286302111e+01 -7.027330625869468e+00
169 1 5.803443412031987e+01 6.198078411916581e+01 -4.772748632432458e+00 -3.589474321688283e-01
170 1 6.164208093361695e+01 6.657202304178951e+01 2.760100597009882e+00 -3.120333695643950e+00
171 2 1.021747123524196e+02 6.461742352008130e+01 -1.028086641321245e+00 -1.453366623378572e+00
172 2 6.305082122295532e+01 6.519524827428084e+01 2.540233503623130e+00 -2.397033094294033e+00
173 1 6.614664685804460e+01 7.205353263427192e+01 7.480489520966414e+00 -6.801753241247003e+00
174 2 6.943118026180615e+01 7.284764442334139e+01 7.913183441238256e+00 -6.352815747860789e+00
175 2 7.023868506761379e+01 7.103669018890236e+01 7.728765226951820e+00 -7.773000038057206e+00
176 2 6.715576238068859e+01 6.536564091155273e+01 8.599139508099293e+00 -1.926087306312578e+00
177 1 6.985773712576891e+01 7.467596921924456e+01 4.928694236133743e+00 -6.865026395264548e+00
178 2 5.442819837143565e+01 7.514478360831259e+01 4.420374247594294e+00 -4.026865593510378e-01
179 1 6.535039718715636e+01 5.571254117525086e+01 -1.232434811830717e+01 -7.556192339336194e+00
180 1 5.986773015467935e+01 6.684984759816749e+01 3.123192415513725e+00 -7.257975637946307e-01
181 1 6.186396589196678e+01 7.528632014684864e+01 6.024149571068876e+00 -3.240298842936174e+00
182 1 5.568083844655929e+01 6.015233096173553e+01 -2.607898850667223e+00 -1.253753989873954e+00
183 2 6.063546165406146e+01 6.601945440899891e+01 2.580615451428542e+00 -2.239325273057915e+00
184 1 6.800907330460176e+01 7.465741363804335e+01 5.350697274747157e+00 -6.611061388325977e+00
185 1 6.132272024038509e+01 5.704969529489643e+01 -1.368569416800531e+01 -7.603501107048188e+00
186 2 6.739992800900669e+01 5.349976637733073e+01 -1.012293473704578e+01 -9.190264699998313e+00
187 2 6.091565450016650e+01 6.735287696998250e+01 3.677023983479352e+00 -2.163396518071196e+00
188 1 6.227029777725652e+01 5.720262276150313e+01 -1.278206389652071e+01 -6.483679405628759e+00
189 2 5.589595919153595e+01 6.970638171404073e+01 3.768003449440232e+00 -1.741278514482812e+00
190 1 6.471991934204677e+01 5.634747708043336e+01 -1.281487526823249e+01 -6.880883860932599e+00
191 2 5.860945967328720e+01 6.381282345890134e+01 -1.436642394905950e+00 -1.158580556790074e-02
192 1 6.811678686887466e+01 6.595099021830873e+01 7.866113835711716e+00 -1.917785479266808e+00
193 2 5.897187770290873e+01 7.227828531339172e+01 5.305127440214918e+00 -2.773048244061611e-01
194 1 6.636930067669356e+01 7.495301619057236e+01 5.239030678276142e+00 -6.334408036164108e+00
195 1 5.447363363676490e+01 5.609640859835451e+01 -4.043928556973610e+00 -2.076655284202253e+00
196 2 5.504678887009361e+01 6.105987406332616e+01 -3.587168663132770e+00 -1.448981443268567e+00
197 2 6.271134767766873e+01 5.825430271873250e+01 -1.471044216958544e+01 -4.962719270587396e+00
198 1 5.677981386606434e+01 7.045721242193773e+01 2.877924051384899e+00 -3.923296668347073e-01
199 2 6.487510366413336e+01 6.241874365764084e+01 -3.497262976136356e+00 -7.934187074236446e+00
200 1 6.124583406830074e+01 5.883154393638475e+01 -4.644001486298102e+00 -6.275680924284544e+00
201 1 6.942126450208040e+01 6.145648217745368e+01 -1.617830819008017e+01 -1.192343565415845e+01
202 1 5.696154898005325e+01 6.950202561892058e+01 4.111715318234076e+00 -2.494871599189272e-01
203 1 5.736083396306995e+01 7.698566311275073e+01 4.698677601885730e+00 -1.432330448222638e+00
204 2 5.471134831168780e+01 7.027377872005438e+01 4.815042441222431e+00 -5.373448358884945e-01
205 1 5.649108469614668e+01 6.868812328377555e+01 4.430461905034796e+00 -7.698240750998285e-01
206 2 6.588034670283618e+01 5.803062441026064e+01 -1.537988869827117e+01 -6.816098142594534e+00
207 1 5.863049507676514e+01 7.625685284957082e+01 3.580701169864296e+00 -1.665764344252277e+00
208 1 6.354903150128209e+01 7.606983904958734e+01 5.944740365496733e+00 -4.373197730072139e+00
209 1 6.892348602478468e+01 6.952005941738069e+01 8.086751920323957e+00 -5.182636933471090e+00
210 2 6.834310928865091e+01 7.360019182089430e+01 6.331655368609101e+00 -6.651897147510940e+00
211 1 5.964740239252595e+01 6.078966800057869e+01 -8.611361389206149e+00 -1.997117061762395e+00
212 1 5.857587619658855e+01 5.928608790922208e+01 -2.420882422090680e+00 -2.368022819044954e+00
213 1 5.528213265734139e+01 5.665009467402937e+01 -1.577993010820437e+00 -3.015987786492925e+00
214 2 6.503929830838999e+01 7.171533151874583e+01 6.477638644745299e+00 -5.104406351235526e+00
215 1 6.732561748233141e+01 7.523767063261869e+01 4.978234408726697e+00 -6.856220257862012e+00
216 2 5.430680233065141e+01 5.496898601479467e+01 -4.982021817119336e+00 -3.131507288693224e+00
217 2 6.650585803559352e+01 7.001290133510231e+01 6.146268736898967e+00 -5.666921942028432e+00
218 2 6.208543783943529e+01 7.000388854366466e+01 5.342062591700144e+00 -9.380999050911617e-01
219 2 5.549531576005171e+01 6.511146132278888e+01 -1.586634469140940e+00 -3.302185151854053e-01
220 1 5.651967764723280e+01 7.135109287188953e+01 4.115448885953675e+00 1.702122382990340e-01
221 1 5.456766288288402e+01 5.866044198864146e+01 -2.908015900812786e+00 -1.886007741335104e+00
222 1 6.248670336015176e+01 7.754986122018427e+01 5.129107968330907e+00 -3.769833491879975e+00
223 1 5.785953086742592e+01 7.236950148731350e+01 5.316150265672607e+00 -1.175354150261779e+00
224 1 5.654221410695421e+01 5.985760650942812e+01 -2.494631170348367e+00 -1.303622237723172e+00
225 1 5.925853204888440e+01 5.423453958551108e+01 -8.741289785459637e+00 -5.577774701614757e+00
226 2 5.500999864515948e+01 7.375246474993469e+01 4.465424636781498e+00 -3.188986633779300e-01
227 2 5.525075956266971e+01 5.777745903170646e+01 -2.471986983428586e+00 -1.809375749362576e+00
228 1 6.584811583265112e+01 7.782508774875696e+01 5.178782043160731e+00 -5.599141492591874e+00
229 1 6.891654868913784e+01 7.624076615815406e+01 4.498146265237814e+00 -6.146348738358116e+00
230 2 6.417086864935986e+01 6.961121415343307e+01 5.249042658983478e+00 -4.685761979492967e+00
231 1 6.032495656514563e+01 6.916323070735213e+01 4.658674380317000e+00 -1.136868002922157e+00
232 1 1.021393757245332e+02 6.801455776920332e+01 2.448321218801131e+00 9.992380570858335e-02
233 2 5.851678671087572e+01 5.724694749800123e+01 -5.945286395405364e+00 -3.255975394363350e+00
234 2 6.006136560977659e+01 7.159135946742971e+01 4.663304379123520e+00 -1.171029503646678e+00
235 1 6.926921151965603e+01 7.171182883212649e+01 9.199278918523985e+00 -5.892708720358153e+00
236 1 6.102043681812570e+01 6.974852826281563e+01 5.174936230015516e+00 -1.895393337813492e+00
237 1 6.431378097865802e+01 7.078188672199370e+01 6.029072557763953e+00 -4.674469536978453e+00
238 1 1.018485340576521e+02 6.570523852725300e+01 5.743487582754833e-01 -6.434035211347598e-01
239 1 5.585523766501761e+01 6.411168928635611e+01 -2.170423218266914e+00 -4.429755063010424e-01
240 2 5.833338563078863e+01 6.790603378392078e+01 4.753432116917032e+00 1.634175651923673e+00
241 2 6.367776493261893e+01 6.730847961642672e+01 4.130314217126790e+00 -3.246837669623875e+00
242 1 5.771758224512579e+01 5.953236235572469e+01 -2.401546158424079e+00 -1.365786666749728e+00
243 2 5.888133148859448e+01 7.096228404430296e+01 4.140403148366312e+00 -7.357746756256926e-02
244 1 5.691919016008271e+01 5.905046277834806e+01 -2.346034467271583e+00 -1.134599026401226e+00
245 1 5.484708669751549e+01 6.921195910598951e+01 3.679884936725359e+00 -1.255632999466713e+00
246 2 5.998982082156770e+01 7.024075328906380e+01 4.420477896749651e+00 -1.138281406098679e+00
247 2 6.468085807621983e+01 7.773032982470228e+01 5.303528866420255e+00 -4.702917450726277e+00
248 2 6.035833034257315e+01 6.172795150601539e+01 -7.608216979854408e+00 -1.915347293793378e+00
249 1 5.450272556092882e+01 6.289879274060068e+01 -6.958659386070415e-01 -1.767490185920220e+00
250 1 5.351583267128472e+01 5.953638159981727e+01 -1.438985060363395e+00 -2.249746749103678e+00
251 1 6.707051576817619e+01 7.221412608193333e+01 7.997229231122496e+00 -6.305331586259125e+00
252 1 6.302902882961342e+01 5.442542129885631e+01 -1.073827859653775e+01 -6.468426593304141e+00
253 2 5.464309053234044e+01 5.975008101102231e+01 -1.951814924211233e+00 -1.752003489874697e+00
254 2 6.606114943811498e+01 6.608135443375066e+01 5.428618360708287e+00 -4.795518755483321e+00
255 1 6.610203617328389e+01 5.525423616403182e+01 -1.278151714230501e+01 -8.836279585534031e+00
256 1 6.740237475768855e+01 7.303629761033848e+01 7.019269795480978e+00 -6.607123991445376e+00
257 1 6.096413085210784e+01 7.487038396077942e+01 5.805225589571273e+00 -2.289382806173579e+00
258 2 6.766359622403826e+01 6.057135551803001e+01 -1.591523589715391e+01 -4.491200480567867e+00
259 2 6.833225496344542e+01 6.158828411768940e+01 -1.254654228474846e+01 -6.408802194223962e+00
260 2 6.494633106373121e+01 7.472303639631998e+01 5.973745352034545e+00 -5.519917592046999e+00
261 2 6.324938722626054e+01 7.061811582167594e+01 6.019651084435319e+00 -3.233275083329134e+00
262 1 5.736907359350459e+01 5.733577343159868e+01 -4.239942714803479e+00 -1.132005362927857e+00
263 2 6.226679725942776e+01 6.769907542096844e+01 3.935892785177185e+00 -2.008166561728818e+00
264 1 5.387649375691599e+01 6.723251239940018e+01 1.422377726622322e+00 -1.846525142643872e-01
265 2 5.988109147521492e+01 6.383190427559044e+01 -1.179012221740569e+00 -5.819355803500222e-02
266 2 6.772887157261617e+01 6.419812369892922e+01 4.134736820931503e+00 -3.486897922691893e+00
267 1 5.922543073713047e+01 6.474414484714048e+01 -2.323978384435797e+00 6.862061505247908e-01
268 2 6.130416123996389e+01 6.863515679285089e+01 3.943747568334087e+00 -2.430915461446840e+00
269 2 5.958817996343343e+01 5.970732160961817e+01 -3.003878412423658e+00 -2.648220643170034e+00
270 1 6.195258407470796e+01 5.632982094644623e+01 -1.037177378332141e+01 -5.860602157722809e+00
271 2 5.786985664247048e+01 7.007664054833934e+01 3.701017937068002e+00 1.756844672870595e-01
272 2 6.825024240332837e+01 5.797544087590678e+01 -1.744112197906633e+01 -1.264253338249064e+01
273 2 6.124342784789447e+01 7.217219116067379e+01 5.025292195298251e+00 -2.230568180406625e+00
274 2 5.934171401415699e+01 6.582563541397069e+01 2.753874021648330e+00 4.142225813619316e-01
275 2 6.714882500492733e+01 7.114906191757994e+01 5.394496711452999e+00 -6.167935335503742e+00
276 2 6.502238913170255e+01 6.694673288385982e+01 4.345120201140919e+00 -3.959345243351105e+00
277 2 5.811032379102334e+01 5.454191502820108e+01 -8.617764771862065e+00 -4.813477927705469e+00
278 1 6.567591489238305e+01 6.050836269939666e+01 -1.048047148986079e+01 -4.634021421467447e+00
279 2 6.361511715608339e+01 6.059503897562001e+01 -1.029578527293787e+01 -2.428838484673253e+00
280 2 5.598306036465367e+01 7.284473080414054e+01 4.464012986387990e+00 -9.067220860716191e-01
281 2 5.759631431382207e+01 7.589983898846431e+01 3.911898301624364e+00 -1.719426888062170e+00
282 2 6.177813891053195e+01 6.543766518419535e+01 2.687583554416530e+00 -2.509855045372210e+00
283 2 6.463227944121351e+01 6.820433872914838e+01 4.313341186854950e+00 -3.502754755111902e+00
284 1 5.952979048256523e+01 7.606991711369839e+01 3.891498263763446e+00 -1.837074667319270e+00
285 1 6.615100385093163e+01 6.720233421889263e+01 4.691184745496972e+00 -4.883148513458114e+00
286 1 7.027159193884620e+01 7.379993332792674e+01 4.954736914052419e+00 -6.961123192965013e+00
287 1 5.690612372301230e+01 7.219886992398136e+01 4.957102828274142e+00 -4.138958326460313e-01
288 2 6.888511306832926e+01 5.672950317531681e+01 -1.543015657904600e+01 -1.229483993541054e+01
289 2 6.878339649018980e+01 6.503731691509148e+01 5.390301227572634e+00 -2.851753697767237e+00
290 1 6.002211765633172e+01 5.481430767376418e+01 -9.810512447552995e+00 -5.804978235379214e+00
291 1 6.015219702044725e+01 5.578768004094534e+01 -9.085678341786544e+00 -5.915314182662117e+00
292 2 5.421355893856568e+01 6.612990213435684e+01 3.465403721465630e-01 -4.951850408901572e-01
293 1 5.894482345944981e+01 6.981958123199507e+01 4.030104387995552e+00 1.882187659544061e-01
294 1 6.646766651568188e+01 7.295315783334337e+01 6.899127916690648e+00 -6.685259795424482e+00
295 1 6.436585292533933e+01 7.661072079307588e+01 5.668289965375624e+00 -4.565286043384643e+00
296 1 5.590398239669195e+01 6.195876152065662e+01 1.407229941571830e+00 7.498392713025412e-01
297 1 5.760995392343293e+01 6.117305106463574e+01 -3.375781661157633e+00 -9.102464539283996e-01
298 2 5.705784250736635e+01 6.772019076859625e+01 4.556817623311439e+00 -1.070377087021671e+00
299 2 5.643103856513235e+01 6.099714050093096e+01 -3.253302644949365e+00 -1.454555089133075e+00
300 2 5.761895456696706e+01 7.131117919493600e+01 3.655977724792584e+00 -8.562671364783250e-01
301 1 6.077809617546227e+01 7.396090388174837e+01 5.551448323954073e+00 -1.889857704761439e+00
302 2 5.581034206859257e+01 6.760065931748755e+01 3.539139193199309e+00 -3.428488368229528e+00
303 2 6.612416855717804e+01 6.261087179023987e+01 -5.992298503863193e+00 2.392265027285413e+00
304 1 5.707673015965271e+01 6.192456589121036e+01 -4.204570635130077e+00 -5.365795001765786e-01
305 2 6.337320587351389e+01 6.851066359805921e+01 3.885004283791117e+00 -3.170727561422439e+00
306 1 5.613141675122986e+01 5.702273344924981e+01 -1.848983048751264e+00 -6.826162869477581e-01
307 2 6.471228826059053e+01 5.993401596497569e+01 -1.258005559532794e+01 -5.538317428037033e+00
308 1 6.346603328770100e+01 5.530129265760144e+01 -1.155150562565998e+01 -6.308097727090503e+00
309 1 5.775513995032408e+01 6.687657835523115e+01 8.695226319710583e+00 1.914785488874600e+00