ITEM: TIMESTEP
1320
ITEM: NUMBER OF ATOMS
2048
ITEM: BOX BOUNDS xy xz yz pp pp pp
52.78774292968965653472 108.0419261947439366622 6.538604924843610888274
52.78774292968965653472 101.503321269900325774 0
-5e-01 5e-01 0.0
ITEM: ATOMS id type x y nonaffx nonaffy
1 1 6.350001640968929e+01 6.224544079859186e+01 2.102320916786192e+00 1.074247991095751e+00
2 1 6.353271516759403e+01 6.442048378789765e+01 1.090413374229102e+00 1.183249432358478e-01
3 2 6.724619272591291e+01 7.384084424931292e+01 1.044592469696532e+00 -6.902506562915605e-01
4 1 6.445753403290811e+01 5.598433949693420e+01 7.347019884418119e-01 -3.534807744327436e-01
5 1 6.161908157447890e+01 5.592277619313518e+01 1.078063650165951e+00 1.112667077250329e-01
6 2 6.490527909768004e+01 7.717340940659318e+01 6.092410655151403e-01 2.107864685605835e-01
7 1 6.682620265954004e+01 6.140132737857935e+01 -1.416712139957732e-01 3.068345909441917e+00
8 2 6.185973431291928e+01 6.324197831771806e+01 7.308641524196299e-03 6.639354890877684e-01
9 1 6.735106136436271e+01 6.058756536137180e+01 -1.179428650261311e+00 3.291950200380133e+00
10 1 6.727792768090517e+01 6.786178078861134e+01 1.300565962625823e+00 3.076465471025152e+00
11 1 7.030993261760865e+01 7.431010403195205e+01 6.193994180441121e-01 -2.865225920462594e-01
12 2 5.621417408059039e+01 7.256788962532016e+01 1.883530299702697e+00 -2.347717708103441e-02
13 2 5.971094104001911e+01 6.065090749424495e+01 1.037867833590939e+00 5.407126451417719e-02
14 2 6.864128937159312e+01 6.641848953333565e+01 1.162558389059328e+00 1.155790693720323e+00
15 2 5.608507784081898e+01 6.828901657448922e+01 -1.332271529207699e+00 -4.300637723865303e-01
16 2 5.505646184991554e+01 5.403417697777134e+01 -4.137435698787240e-01 -5.528412259683407e-02
17 2 6.455973001547891e+01 6.387514363321139e+01 2.252976857879369e+00 1.609696434328794e+00
18 2 5.906867709949329e+01 5.865245809691900e+01 4.936856755247629e-01 1.802971603663107e-02
19 2 6.297740954078033e+01 5.484679142100212e+01 8.802838286882523e-01 -1.113526435349047e-02
20 2 5.894935707270245e+01 7.477089359444203e+01 3.004805564115255e-01 7.147388452810850e-01
21 1 6.107074676491109e+01 5.660719649776597e+01 1.485935048040437e+00 7.212743461365693e-01
22 2 6.688045045313326e+01 7.043022952753387e+01 1.211326350835040e+00 -7.141604732814271e-01
23 2 6.546677002792887e+01 5.844063315194263e+01 8.990812085007950e-02 1.434465825241085e-01
24 1 6.150817263678405e+01 7.548416172110910e+01 7.681082026281173e-01 2.141157747040427e+00
25 2 6.398554018459642e+01 5.698553851223501e+01 8.411741866790058e-01 1.493332691611156e-01
26 1 6.281291190976699e+01 5.291382890697332e+01 -1.025501048452400e-01 -5.979479500676865e-01
27 1 6.979718721686008e+01 7.514137976876827e+01 6.266743514584732e-01 3.803600387165447e-02
28 1 6.813124350898349e+01 5.594470770443419e+01 -1.098330761311920e+00 -7.111399976907271e-01
29 1 6.468116151654193e+01 7.224103986019006e+01 8.328511776681993e-01 -9.301558951627829e-01
30 1 6.788781340706629e+01 6.417848647367762e+01 1.520179975483127e+00 2.213385726366267e+00
31 1 6.013941906300833e+01 5.641464939978313e+01 1.503780035783287e+00 2.789139351226008e-01
32 2 5.959071119447407e+01 5.535926645459958e+01 9.156165145771495e-01 5.604104800206170e-01
33 1 6.062214449823490e+01 7.350224758764732e+01 1.084241562433183e+00 1.799576836354087e+00
34 1 5.988337848935617e+01 5.331933498815785e+01 7.490474739603892e-01 9.153560557307794e-01
35 2 5.461579482284370e+01 5.718231071245484e+01 1.664313818587650e+00 8.113437884054139e-01
36 1 7.074730879159043e+01 7.512955795090329e+01 6.834683867245371e-01 -6.632704822982097e-01
37 2 6.870537220079417e+01 5.907363891786254e+01 -1.266901274894044e+00 1.420147114008130e+00
38 1 6.101329352567483e+01 6.789630339893232e+01 2.093880625889268e-01 1.319867970661800e+00
39 2 6.252087059262072e+01 6.030314796917917e+01 6.700438954009191e-01 7.375612402667669e-01
40 2 5.868404826640067e+01 7.347594003979572e+01 2.634210349372548e-01 1.304326957892030e+00
41 2 5.702523930242446e+01 5.487940877533245e+01 -4.748733405595620e-01 -4.229541699429905e-01
42 2 6.576827908433403e+01 6.097022335844866e+01 7.884954789694432e-01 4.257581571298804e-01
43 2 6.285372132939599e+01 7.727932313288017e+01 5.918514148072908e-01 3.695147043730564e-01
44 1 5.975378821892243e+01 7.333470425332747e+01 8.180655791301177e-01 2.607505462432474e+00
45 1 5.890588421695170e+01 6.646208581432516e+01 5.079642386746830e-02 9.972859695722287e-01
46 1 6.717220512908517e+01 6.359273964628143e+01 1.541345829185617e+00 2.842797792522144e+00
47 1 5.807958673210355e+01 6.688622983724831e+01 -8.041699378376589e-01 -3.940245546991196e-02
48 1 6.449083815816918e+01 5.798589234720433e+01 4.625287339088661e-01 2.615323927298037e-01
49 2 6.688733851201215e+01 6.913717100790572e+01 2.235549208805950e+00 -6.043323511679789e-01
50 1 5.922466856846584e+01 5.638627123882956e+01 1.248107027205544e+00 9.802334349467172e-01
51 1 6.510726612421098e+01 6.289548507174809e+01 6.795569922410855e-01 1.145598292489168e+00
52 2 5.869167097228643e+01 6.322535872662623e+01 1.398003084785136e-01 9.701743332165375e-01
53 2 6.713391342857818e+01 5.541109560305840e+01 -4.286806381727848e-01 -1.681535499195067e+00
54 1 5.585873534829279e+01 5.484565806401700e+01 -1.153762266023475e+00 7.762561873348841e-01
55 2 6.956920402083071e+01 7.196252445488322e+01 1.896370084662925e+00 -5.626159804170687e-01
56 1 5.978940594980658e+01 6.616687702504900e+01 -3.685272225274934e-01 -1.168224021460253e+00
57 1 6.990990677034580e+01 7.092775119665093e+01 1.294109132139593e+00 -1.001853001403335e+00
58 2 6.380882299443331e+01 7.634335968136277e+01 1.106481724336430e+00 2.000113594359256e-01
59 1 6.978762471595066e+01 6.649603895236442e+01 1.489755964739183e+00 3.291690458302471e-01
60 1 5.979304595273548e+01 6.924815034642573e+01 -1.814434812019155e+00 1.734916798212705e+00
61 1 5.724437688586394e+01 7.096072796295296e+01 4.202755663789470e+00 -1.162747370231802e+00
62 1 5.722675858880890e+01 7.195071019764374e+01 2.673429764244263e+00 -2.246826223072344e-01
63 2 5.495737941700693e+01 6.090811894206187e+01 1.186749419011968e+00 1.041407947735772e-01
64 2 6.695555287304730e+01 7.657174068630351e+01 5.330417873510913e-01 -3.325567021219655e-01
65 1 6.623352889353876e+01 7.574099217034356e+01 5.297574419476668e-01 -2.685767510229977e-01
66 1 5.647083286613039e+01 7.148289564875502e+01 3.401761710109095e+00 -7.121969339046678e-02
67 1 6.546394240599314e+01 5.430200250935324e+01 -2.166203505252444e-02 -1.463238734250058e+00
68 1 6.297951159049407e+01 5.923160969038959e+01 4.559845215565994e-01 8.460386963582005e-01
69 1 5.636842607613150e+01 6.723432276811403e+01 -5.854350450018122e-01 -2.074196934002628e-01
70 2 5.779964383766930e+01 7.551239562858622e+01 -5.023296579689061e-01 1.047054979626855e+00
71 2 6.467264450698481e+01 6.180766765632900e+01 -3.210467451603310e-01 1.177880176126850e+00
72 2 5.692516802454568e+01 5.926637380760345e+01 2.651649480258745e+00 5.032814970204935e-01
73 1 6.826957895664981e+01 5.372238978843747e+01 1.492597113068961e+00 -2.512770937309550e-01
74 1 6.395387714045882e+01 6.890842910559793e+01 -4.225670930194343e-01 1.811803078244318e+00
75 1 5.980158073713395e+01 6.299240901411654e+01 -1.018440572632376e-02 6.203068758388517e-01
76 2 6.815623204933289e+01 7.594416987742436e+01 1.371120420251090e-01 -7.535214523565916e-01
77 1 6.181226314232409e+01 6.835068142356789e+01 -1.974330241454920e-01 9.764019896583802e-01
78 1 5.765468627634035e+01 6.285019907702439e+01 3.129319650039086e-01 1.000063909476448e+00
79 1 7.030474905196004e+01 6.730235787306331e+01 1.859177578989118e+00 -3.365874263526189e-01
80 1 6.074536820474493e+01 6.297290078657102e+01 -8.278678064389997e-02 7.487670401581303e-01
81 1 5.539256953344499e+01 6.532024911720349e+01 -1.035361181665406e+00 5.122940481577254e-01
82 2 1.025592096901665e+02 6.152186123432185e+01 9.942591546994375e-01 1.002696276039983e-01
83 2 5.777670192188221e+01 5.837115730210321e+01 1.360694286113675e+00 -1.245516465644331e+00
84 2 5.907764688746794e+01 6.530461849515272e+01 -7.689841607255369e-01 2.895554628337804e-01
85 2 6.148683713030690e+01 5.771036922116599e+01 1.212523848364293e+00 8.116226463946763e-01
86 1 5.853977315780190e+01 5.580439112570817e+01 1.688614681118705e+00 2.598828722288896e-01
87 2 6.833016612026232e+01 5.484799923845730e+01 -4.310857669038436e-01 -5.648362601715237e-01
88 1 6.773822559254022e+01 7.114478665317606e+01 1.191165529366199e+00 -5.950084656110594e-01
89 1 6.047195602070786e+01 6.712239887995847e+01 8.744017357938669e-01 1.582969150530543e+00
90 2 7.002801351606051e+01 6.329439672268929e+01 1.094917534715165e+00 5.782186808721533e-01
91 1 6.162850721193595e+01 6.088022432918193e+01 5.508533447540177e-02 1.983284567073611e-01
92 2 6.218776066466923e+01 5.376004569529751e+01 7.208230036707662e-01 2.320557633546043e-01
93 2 5.769627382779674e+01 7.428875403092208e+01 3.463945122829652e-01 8.572221806753825e-01
94 2 6.161262846661469e+01 5.487840528280095e+01 5.827572813616176e-01 -9.832556300406842e-02
95 2 6.348851831891049e+01 6.116201325333179e+01 -1.174076234916516e-01 1.104377991510124e+00
96 1 6.687640213253528e+01 7.275911807781037e+01 1.428777822225972e+00 -4.831025091197480e-01
97 1 6.762250785400333e+01 5.951009372182708e+01 -1.506811588688952e+00 1.407144940121826e+00
98 2 6.642910583075236e+01 5.644771366517532e+01 1.027573145984804e+00 -4.199919684627208e-01
99 1 5.676066885054645e+01 7.608053568797348e+01 -5.805607723411668e-01 1.805553556963996e+00
100 2 5.666840768164029e+01 6.326398811979853e+01 1.111329708769290e-01 8.274716943112315e-01
101 1 6.418815660390919e+01 6.283001615824039e+01 7.860667459975291e-01 2.399832057534431e+00
102 1 5.678490245313280e+01 7.501340417364344e+01 4.273877284201849e-01 4.925820907923713e-01
103 1 5.814317729757780e+01 6.597235225150111e+01 1.303326829828975e-01 5.877818305509290e-01
104 1 5.897090945565558e+01 6.885992504631565e+01 -7.884508651676165e-01 -1.124058635574850e+00
105 1 5.708037099619050e+01 6.880057247467280e+01 -1.764217066576811e+00 -1.360924597518558e+00
106 1 5.770792725417958e+01 6.382351384146493e+01 -1.530792914268504e-01 1.002447593768437e+00
107 1 6.560196295042942e+01 7.244887053212186e+01 9.477857599853959e-01 -4.956356602681647e-01
108 2 6.797907549138937e+01 6.153914555580668e+01 -4.546981515939869e-01 2.907606508811926e+00
109 2 6.431568431008080e+01 5.914323024891823e+01 3.709595739123072e-01 7.182809515100115e-01
110 2 5.454016290658667e+01 6.351128974487427e+01 5.290328051790766e-03 3.090155907637838e-01
111 1 6.138190535151878e+01 5.881472481960117e+01 4.321801790986251e-01 1.037141073562204e+00
112 1 6.348136379217966e+01 5.592224617650122e+01 9.055880753913660e-01 9.165167732908698e-02
113 1 5.607504032697410e+01 6.233517801709154e+01 7.423078380269449e-01 8.042731362023733e-01
114 2 7.063138276061525e+01 7.016883773279521e+01 2.187026245690070e+00 -3.839479919358388e-01
115 2 6.537770098875146e+01 6.602253718961991e+01 5.132161145967311e-01 1.065986708721219e+00
116 2 6.689590506649725e+01 6.464922039481951e+01 8.447547126300663e-01 1.710875086936998e+00
117 1 6.240871567048139e+01 6.143907975977093e+01 -2.917441835475179e-01 3.049730749028666e-01
118 2 5.774166668092978e+01 6.499128676856873e+01 -8.544897406086369e-01 1.103740861073617e+00
119 1 6.795248064894560e+01 7.702393073289795e+01 5.517868465832586e-01 -4.766620545012740e-01
120 2 5.709360576296629e+01 6.639976009771829e+01 -5.428927878833614e-01 -4.864644456204026e-01
121 1 6.870780005631462e+01 6.884553958556066e+01 2.415414553680462e+00 6.853607325420382e-01
122 1 5.998147025555952e+01 7.423145575623997e+01 1.302889676712538e+00 1.932678223413835e+00
123 2 6.319039800417751e+01 6.335504076172629e+01 -3.077763216022512e-01 4.366951234256239e-01
124 2 6.560549883218431e+01 6.472855712945641e+01 1.371961593058096e+00 1.334318142931342e+00
125 1 6.500342358163445e+01 5.515026894624970e+01 7.827403001764496e-01 -6.427168580455574e-01
126 1 6.256326160160439e+01 5.753258955164369e+01 1.176472218963999e+00 6.106773874425535e-01
127 2 6.943431285546690e+01 6.967058012994553e+01 2.058038563268729e+00 3.083899411424967e-01
128 2 6.598169457347635e+01 7.345588165718723e+01 9.645236836183019e-01 -6.197393681913118e-01
129 1 6.156460661265210e+01 6.521047708752830e+01 2.483495451621489e-01 1.081676104555072e+00
130 2 6.014982660432155e+01 7.534348502132966e+01 1.511321978367403e-01 1.255026220655964e+00
131 1 5.857255060602027e+01 6.429562631245967e+01 -2.434848819507050e-01 7.701590154081593e-01
132 1 6.203159234681877e+01 5.938407322457401e+01 5.249930182449647e-03 1.304201625119947e+00
133 2 6.381106554141555e+01 7.154548002074078e+01 3.960407020020677e-01 -3.391684424768752e-01
134 2 7.162374554594938e+01 6.931302295358449e+01 2.169789860426096e+00 -6.762097907699880e-01
135 1 6.050867372969611e+01 5.730234092789568e+01 1.573323337954410e+00 4.685760095585797e-01
136 2 6.160298472550191e+01 7.300290368371363e+01 9.773842429323032e-01 1.351843205757844e+00
137 2 6.379004843434790e+01 7.293868862349341e+01 9.719535282422475e-01 -1.474631367288984e-01
138 2 5.497074395748525e+01 6.220600942079864e+01 8.692572918826721e-01 1.120923228049393e-01
139 2 6.725730026617067e+01 5.409961021093744e+01 4.881161587362487e-01 -1.491831681431311e+00
140 2 6.969720816738894e+01 6.831664296451115e+01 1.862963802194452e+00 2.944907590310976e-02
141 2 6.529644252990923e+01 5.715347280605990e+01 7.959979313493328e-01 6.733137458673549e-02
142 1 6.636611847383557e+01 6.562738929753222e+01 9.786093420415708e-01 1.529879619069727e+00
143 1 6.460686384703655e+01 6.956095768326944e+01 7.698453844331518e-01 8.194340238991019e-01
144 2 6.842919352304767e+01 6.774657065807172e+01 1.501023688148899e+00 8.333112287112695e-01
145 2 5.570457045423520e+01 6.422238785575892e+01 -5.673697459173656e-01 4.813443998801341e-01
146 1 5.838276922843104e+01 5.674303630177138e+01 4.781696200164148e-01 -6.516040331547839e-01
147 2 6.015911164686475e+01 6.193203464455991e+01 2.761586123229793e-01 6.371466930312039e-01
148 1 6.938255596674325e+01 6.727016630395211e+01 1.632377927202993e+00 4.448292597018124e-01
149 2 6.850303352310198e+01 7.385124084725874e+01 9.433151724200463e-01 -8.166803589756007e-01
150 2 6.432221323022296e+01 7.507455416405566e+01 1.056871642108965e+00 -6.082088538704634e-02
151 2 6.114088813621633e+01 7.445347171255156e+01 1.195519852023223e+00 1.792849329457348e+00
152 1 6.256743544909026e+01 6.236086697261396e+01 1.022336335620966e+00 4.690422739478763e-02
153 2 6.889221618632881e+01 6.252644056360937e+01 6.467881664682914e-01 1.394221326090648e+00
154 1 6.541261061778268e+01 7.528455255696322e+01 8.318265570559633e-01 -3.867714684655541e-01
155 1 5.548074839518681e+01 5.793315475052570e+01 1.746473417422956e+00 7.727104727709743e-01
156 2 6.434980567777031e+01 5.415471372390524e+01 -1.394470536214406e-01 -2.731052245079846e-01
157 1 6.270697089491027e+01 7.329069032290084e+01 1.035342822206970e+00 6.398926944576997e-01
158 1 6.522638192707089e+01 7.433077266579156e+01 1.010759325751798e+00 -3.065208859418814e-01
159 2 6.328417543438267e+01 7.422139195607802e+01 1.101287661696476e+00 2.824698097677238e-01
160 1 6.356552384424545e+01 5.998312557320680e+01 6.028834168145355e-01 9.827265447315437e-01
161 2 5.377734600842163e+01 5.433071239618976e+01 -8.130018073321471e-01 -7.420516641862899e-01
162 1 6.714828850687734e+01 7.543511062957350e+01 4.886174528811311e-01 -6.695563034773628e-01
163 1 5.505077941969077e+01 5.907924341293605e+01 2.317338368135323e+00 -4.801770083006949e-02
164 2 6.768728802010260e+01 5.831517323302684e+01 -3.160121522988517e-01 7.897281377438440e-01
165 2 6.769443727372702e+01 5.697072200096133e+01 9.106362649032629e-01 4.254404344350399e-01
166 1 6.531872324945530e+01 7.157207428504412e+01 1.847480209582937e+00 -2.925191387761051e-01
167 1 6.803494497955435e+01 6.323179070606766e+01 6.448021529634183e-01 1.526903315182575e+00
168 2 6.663068868683875e+01 5.903695778638497e+01 -4.961590111771138e-01 -4.978191796228864e-01
169 1 5.915505780531581e+01 6.225049102637372e+01 2.783000357383315e-01 8.650223450477201e-01
170 1 6.314152723674155e+01 6.666613094156361e+01 -2.094562953504734e-01 -2.504281158135812e-01
171 2 5.448422655468571e+01 6.479995855095011e+01 -8.676824088350960e-01 6.621690027761131e-01
172 2 6.439257833734193e+01 6.515923211969731e+01 7.835715590018741e-01 1.066173609438642e+00
173 1 6.750215089943038e+01 7.204321971453058e+01 1.281616550290778e+00 -5.980826470659821e-01
174 2 7.080676331434215e+01 7.244974094639109e+01 1.518498058750070e+00 -1.473927168309259e-01
175 2 7.179023951834097e+01 7.062440471132915e+01 1.855343729940548e+00 -3.644611662747538e-01
176 2 6.850711854302168e+01 6.510464271299057e+01 2.142390420988504e+00 1.427067487753768e+00
177 1 7.125397804292615e+01 7.436024091757542e+01 8.379664997895656e-01 -1.091393106679615e+00
178 2 1.044751973238129e+02 7.545085799315156e+01 4.441799804255285e-01 -5.566458331131725e-01
179 1 6.595166224206866e+01 5.539980863172960e+01 4.056228595245122e-01 -3.026365550394577e-01
180 1 6.142662870173003e+01 6.707976688427603e+01 4.825267479829054e-01 9.425926447469111e-01
181 1 6.323490415774683e+01 7.532663081807848e+01 1.210157523544277e+00 1.743614520936710e-01
182 1 5.684418417910997e+01 6.037988598741337e+01 1.647033131176425e+00 6.432643375235300e-01
183 2 6.212113838138807e+01 6.620704820829792e+01 1.287111450702775e-01 4.491796435935473e-01
184 1 6.942749642176030e+01 7.433804899971477e+01 5.685744575381689e-01 -1.271166617017611e-01
185 1 6.203249915997700e+01 5.672898509766921e+01 1.133929552687464e+00 4.718512711206324e-01
186 2 6.740773858774823e+01 5.282946354547580e+01 -1.574959238313950e+00 -1.631651193450350e+00
187 2 6.249279961738002e+01 6.750881594650599e+01 2.968753104918117e-01 4.363702257327784e-01
188 1 6.294584270433577e+01 5.669592022273373e+01 1.017787311310461e+00 2.997382039062200e-01
189 2 5.736314950624067e+01 6.984980843664719e+01 5.926022240111442e-01 -3.148101303183321e+00
190 1 6.534872654770624e+01 5.605549884021514e+01 6.216733154624322e-01 -8.394245758608405e-02
191 2 5.970023912504791e+01 6.411117335259223e+01 3.540023088692137e-01 6.794020674655240e-01
192 1 6.949939873265811e+01 6.560544745292097e+01 1.945418328583970e+00 9.461911423042979e-01
193 2 6.039861143045972e+01 7.238282286554859e+01 1.014185727984176e+00 1.922767592373012e+00
194 1 6.786679359886075e+01 7.481597597661839e+01 9.588112482542143e-01 -7.035484785991605e-01
195 1 5.514494409272008e+01 5.626794915548447e+01 1.400247769044967e+00 -6.665101911041084e-01
196 2 5.623225035597940e+01 6.126567369910755e+01 8.234904370581239e-01 7.127559734561060e-01
197 2 6.341312643598214e+01 5.819384852941629e+01 6.958742126240685e-01 7.360404396039403e-01
198 1 5.822773602772303e+01 7.058492127311089e+01 -2.835953221160026e+00 -8.612171127254187e-01
199 2 6.595719228157942e+01 6.220389949355881e+01 -7.908411320302047e-01 7.205007264586539e-01
200 1 6.231843291356238e+01 5.849131740925009e+01 6.001042020823794e-01 9.849792647037835e-01
201 1 7.033214203108804e+01 6.097460275297565e+01 -6.946982344520711e-01 -3.449987851948490e-02
202 1 5.841121823087307e+01 6.960214452550801e+01 1.649195652354663e+00 7.003854055094978e-04
203 1 5.873557418487552e+01 7.720864399125549e+01 9.072250567990569e-01 4.609836933133629e-01
204 2 5.618482830279387e+01 7.042881398118976e+01 3.142228530537702e+00 8.366502863231469e-01
205 1 5.800973376314118e+01 6.873350518285616e+01 -1.033460480461501e+00 3.580887987458823e-01
206 2 6.654348835319539e+01 5.770585893524675e+01 3.990403847251719e-01 -3.083603831740444e-01
207 1 6.002810734979758e+01 7.643144330960938e+01 -1.584981017894306e+00 7.441816326164561e-01
208 1 6.492502579579549e+01 7.605881201235755e+01 1.093229829587906e+00 -2.988327519109641e-02
209 1 7.046643941410107e+01 6.910847750050291e+01 1.946596136339805e+00 -1.627376792670679e-01
210 2 6.973463042960192e+01 7.327436923568018e+01 1.136680876278687e+00 -3.323571638959852e-01
211 1 6.076543948116208e+01 6.102764610175358e+01 4.933235412881600e-01 1.153913388589004e+00
212 1 5.991772491500889e+01 5.949309205458656e+01 -3.394559552954906e-01 1.530933930747443e-02
213 1 5.670051008483883e+01 5.685355540484782e+01 1.200868863978624e+00 -1.489665081203163e-02
214 2 6.646228998088299e+01 7.170261544815189e+01 1.576704476288851e+00 -4.479334277677475e-01
215 1 6.881422285970372e+01 7.502283334425097e+01 9.295336356029534e-01 2.805476379287909e-01
216 2 5.478140843716783e+01 5.523108348455965e+01 -2.153558445276150e+00 -2.871374609949012e-01
217 2 6.805923454826095e+01 6.979002612021563e+01 1.844527382983883e+00 8.149482512501317e-01
218 2 6.358664918429172e+01 7.000766754349711e+01 1.171708710462250e+00 2.560795614107892e+00
219 2 5.648182003152942e+01 6.529397755914135e+01 -1.210561257513383e+00 3.018474055462376e-01
220 1 5.800485340130271e+01 7.149145802947697e+01 3.324093320416775e+00 6.218556683887591e-01
221 1 5.590020934854666e+01 5.879568826889860e+01 2.586963798375880e+00 6.559090690571060e-01
222 1 6.389719882943236e+01 7.752595726581147e+01 4.916256999179532e-01 2.041504090601693e-01
223 1 5.928848684537267e+01 7.254049376378474e+01 1.323246978446094e+00 2.829111175829703e+00
224 1 5.770515369269057e+01 6.011112954866416e+01 2.012273881164279e+00 1.034193851849674e+00
225 1 5.968797931432799e+01 5.423776587985594e+01 -3.369949535820589e-01 6.753672623215932e-01
226 2 5.647686687005968e+01 7.389857045038559e+01 6.143041299345778e-01 5.776442567046333e-01
227 2 5.658753167796886e+01 5.792321091762259e+01 1.716014561794695e+00 3.320821469287809e-01
228 1 6.730370859297760e+01 7.769104514470277e+01 7.319283171617781e-01 -2.906785116604608e-01
229 1 7.025627276222374e+01 7.594245491236629e+01 8.092323841376597e-01 -2.521988078399729e-01
230 2 6.571932178825868e+01 6.966776736772619e+01 1.398540838133286e+00 -8.319662815378468e-01
231 1 6.190509617813809e+01 6.925817186822066e+01 -3.116690310565845e-01 8.717853523735287e-01
232 1 5.490126638775320e+01 6.814616283576952e+01 -1.841940621917318e+00 -2.288894983318591e-01
233 2 5.949125078026130e+01 5.741501067262663e+01 1.891055521055400e+00 6.048458880942081e-01
234 2 6.150974727949527e+01 7.165174340672996e+01 6.507100051933199e-01 1.267758502657164e+00
235 1 7.079954749857903e+01 7.129961264146768e+01 8.022584686531453e-01 -3.446088684401882e-01
236 1 6.251716478936841e+01 6.985254459967577e+01 8.294542177068746e-01 4.028513001529497e-01
237 1 6.583154185646099e+01 7.078382328985847e+01 1.638102939245686e+00 -5.688227748008973e-01
238 1 5.464711235373187e+01 6.592857142951198e+01 -6.429289798631453e-01 9.038437095834931e-01
239 1 5.687347859396041e+01 6.429305567210479e+01 -3.834159522093332e-01 7.073158729732820e-01
240 2 5.991124295368482e+01 6.814179845912534e+01 -2.275515619276870e-01 8.517949481394759e-01
241 2 6.515658861676978e+01 6.727928366975084e+01 2.964081616981717e-01 8.982420072050943e-01
242 1 5.902952912967755e+01 5.976052348623501e+01 -5.797384836748586e-01 3.475794910853132e-01
243 2 6.034121782986327e+01 7.107654276101724e+01 1.276037040674183e+00 1.373146833660423e+00
244 1 5.818577489332684e+01 5.938188141028593e+01 -5.094517457105451e-01 -8.772606309434188e-01
245 1 5.633235759999653e+01 6.935966790915715e+01 -1.186479631337154e+00 -4.242429232186606e-03
246 2 6.145037190493225e+01 7.030009561011823e+01 1.618977491636511e-01 6.729005965531064e-01
247 2 6.614290469182809e+01 7.759352342166270e+01 6.128145056160382e-01 -5.730088341117098e-02
248 2 6.144136461377233e+01 6.200908863017249e+01 3.886605559912868e-01 8.270937326047678e-01
249 1 5.557559791246440e+01 6.312447405479116e+01 1.289032275513803e-01 4.439304767483181e-01
250 1 5.463227967282984e+01 5.984411868215352e+01 2.171394638577856e+00 1.853094825880896e-01
251 1 6.840326451437997e+01 7.188036091919804e+01 1.292533188537766e+00 -9.982908830211880e-02
252 1 6.329546096238538e+01 5.376154331269694e+01 1.730120344593164e-01 -5.694673272378159e-01
253 2 5.579945734355827e+01 5.994739191010562e+01 2.001181022893581e+00 3.876818160352776e-01
254 2 6.744206424499282e+01 6.586089151260816e+01 1.304360300315857e+00 1.380537111116100e+00
255 1 6.631408706042856e+01 5.461080648264193e+01 -3.181042282415107e-01 -1.389194953539868e+00
256 1 6.874908124512186e+01 7.274210873715560e+01 1.684686538794367e+00 -5.801285843803136e-01
257 1 6.232691702441672e+01 7.493097779967323e+01 8.496691300230490e-01 8.779782424067716e-01
258 2 6.842375952669508e+01 6.028573142967210e+01 -1.597029045319687e+00 1.761491139561448e+00
259 2 6.923617166440118e+01 6.121175888110118e+01 -6.919094948848478e-01 9.686993519551406e-01
260 2 6.632679053410070e+01 7.467768212183803e+01 8.516358201223361e-01 -5.529369238934213e-01
261 2 6.473834057895810e+01 7.063815159218676e+01 1.829944099546202e+00 4.164494274055794e-01
262 1 5.846586359812429e+01 5.762930589169888e+01 1.642690622782875e+00 -1.005451854574355e+00
263 2 6.384506935476266e+01 6.775195002716026e+01 2.664242598372699e-01 1.234404715450741e+00
264 1 5.544083841578273e+01 6.741827652097760e+01 -9.695608585894981e-01 1.458391918864325e-01
265 2 6.100248212873844e+01 6.422922375691144e+01 3.439786346440853e-01 1.762478721259538e+00
266 2 6.894992422557709e+01 6.389116575547548e+01 1.223559986748632e+00 1.016174177387850e+00
267 1 6.023489095687563e+01 6.512322255295318e+01 -5.951578210975568e-01 1.536600617840095e+00
268 2 6.290265345141847e+01 6.876406801172179e+01 -3.763989164380248e-01 1.507842546745709e-01
269 2 6.098692999711666e+01 5.990144908950282e+01 -8.526253813874599e-01 9.368129973821724e-01
270 1 6.251995138101071e+01 5.586591220465110e+01 1.183436553132125e+00 4.625052844376973e-01
271 2 5.929917524977507e+01 7.022300510637670e+01 -7.105326516879044e-01 3.486129907880782e+00
272 2 6.884439016792562e+01 5.771691273360133e+01 -4.420785975439672e-01 1.307745189097193e+00
273 2 6.268340207117722e+01 7.221589707193273e+01 7.696313326304884e-01 6.550789569932636e-01
274 2 6.085323050400314e+01 6.606548022383046e+01 -1.401188588406077e-02 1.301314567471020e+00
275 2 6.881723674240828e+01 7.084314233788324e+01 1.567847138044129e+00 2.420677206040263e-01
276 2 6.646490206809251e+01 6.680025886119917e+01 4.742049009211102e-01 1.050071985761500e+00
277 2 5.837330840273248e+01 5.473617964151838e+01 1.001603135735858e-01 6.479383824365964e-01
278 1 6.657058235157363e+01 6.016363502110153e+01 9.475625974501782e-01 -7.337338334404159e-01
279 2 6.455352295078322e+01 6.048099865773251e+01 3.966633329094616e-01 1.069412531594511e+00
280 2 5.745154517223424e+01 7.301483819635749e+01 8.628405793309876e-01 5.780122376275469e-01
281 2 5.897956597461221e+01 7.610438996495017e+01 -7.702614100229066e-01 1.533214187389103e-01
282 2 6.316643892055990e+01 6.550727428576141e+01 6.915411234051997e-01 2.177597132233266e-01
283 2 6.618706303532467e+01 6.808725947612587e+01 1.321203478014629e-01 1.088209243325605e+00
284 1 6.091575761842542e+01 7.619033070777014e+01 -1.043451102819498e+00 1.818187261499872e+00
285 1 6.760641717796572e+01 6.697155982059738e+01 5.229558788363944e-01 1.961555097573519e+00
286 1 7.168750628704296e+01 7.351332212795775e+01 6.693812787483300e-01 -1.533134951368234e+00
287 1 5.835691109237221e+01 7.235996072210308e+01 1.329216238065108e+00 1.455351392401032e+00
288 2 6.913090901287083e+01 5.643260523556648e+01 -1.786393889569155e+00 8.483167950729240e-01
289 2 7.008339251264064e+01 6.461472644030043e+01 1.706159350850482e+00 5.644670983518572e-01
290 1 6.050014545740006e+01 5.473405084447172e+01 4.443103594381562e-01 -2.117391250958984e-01
291 1 6.072023188178460e+01 5.566409865785053e+01 8.797587478542153e-01 -2.288328307615199e-01
292 2 5.572426101521924e+01 6.635127067633846e+01 -1.015310659347902e+00 5.171649358472312e-01
293 1 6.037900711777495e+01 6.998256012170695e+01 -8.045421535005306e-01 1.281541323364358e+00
294 1 6.784193797744305e+01 7.289195761838286e+01 1.528184081545911e+00 -9.253283175262447e-01
295 1 6.578558393726087e+01 7.650609000756835e+01 7.427270381167683e-01 1.314747021019220e-01
296 1 5.700405896186268e+01 6.215592636505187e+01 6.148178085143994e-01 8.623504742309654e-01
297 1 5.880949532847987e+01 6.139192643383087e+01 9.947693027169474e-01 1.009669516671867e+00
298 2 5.866782915290494e+01 6.778582496834842e+01 -2.286039010584373e-01 -7.232526478019391e-01
299 2 5.762174862187832e+01 6.122585505058973e+01 8.613726999886026e-01 9.790086554514900e-01
300 2 5.910160083854146e+01 7.147894771971492e+01 3.123049095294295e+00 3.616855791852738e+00
301 1 6.215140377637709e+01 7.401419418813131e+01 1.110683923986171e+00 9.541364727917949e-01
302 2 5.735059555218683e+01 6.774517634580462e+01 -5.666132403101635e-01 -3.245631546718001e-01
303 2 6.717572827972231e+01 6.251403562880496e+01 -1.480072226942565e+00 3.373383834132430e+00
304 1 5.823124814128919e+01 6.215283606434627e+01 4.373931370726020e-01 9.233201786942946e-01
305 2 6.498248438502725e+01 6.853640664558624e+01 -3.508155773231154e-01 6.847255122820487e-01
306 1 5.756282390648886e+01 5.724674332614860e+01 1.143715351708550e+00 -7.823505425941800e-01
307 2 6.553296161979404e+01 5.970034626690134e+01 2.241813398785865e-01 5.599381098178692e-01
308 1 6.404389740161895e+01 5.518478039615358e+01 8.094374920011373e-01 -8.845370412228021e-03
309 1 5.955739824117817e+01 6.708228036047156e+01 1.211814452318732e+00 -1.718586217624328e-01
310 1 5.472145800148543e+01 6.689911835507972e+01 -1.681012579589047e+00 1.229617030895365e+00
311 2 6.606572075612301e+01 6.352194536846375e+01 1.577886415934941e+00 6.823675451809974e-01
312 1 5.577077927917080e+01 5.701722826456805e+01 9.820749311085526e-01 -5.104752027014152e-03