ITEM: TIMESTEP
396
ITEM: NUMBER OF ATOMS
2048
ITEM: BOX BOUNDS xy xz yz pp pp pp
52.80246567225296416836 103.3815153727403810535 1.892916845403362913203
52.80246567225296416836 101.4885985273370181403 0
-5e-01 5e-01 0.0
ITEM: ATOMS id type x y nonaffx nonaffy
1 2 6.219148552558443e+01 6.215110922301662e+01 2.832607518074738e+00 -3.219128443274414e+00
2 2 6.154398139298704e+01 6.800730895003328e+01 -1.267160393919513e-01 -3.658875196294275e+00
3 1 5.897494829197822e+01 7.121543718740379e+01 6.505956509187423e-01 -3.809800118740102e+00
4 2 6.524047816264718e+01 6.437612215424004e+01 3.012398715533459e+00 -4.363614296198080e+00
5 2 6.605372893204095e+01 7.704732691078874e+01 1.815766346573706e+00 -5.017515851461035e+00
6 1 5.851018821349422e+01 6.494696979947970e+01 2.503989417966773e+00 -4.243508850331699e+00
7 1 6.921399808249264e+01 6.392005362082226e+01 4.281008135871940e+00 -3.537457175866165e+00
8 1 5.458046972557327e+01 6.249094411804232e+01 2.693376073045522e+00 -2.724782009937273e+00
9 1 5.374101257926795e+01 6.265972677402257e+01 2.918693551194870e+00 -2.011893028864204e+00
10 1 6.516702990446420e+01 5.879048345239828e+01 5.723126314669495e+00 -2.632441857518662e+00
11 2 6.090209810990078e+01 6.196249081917610e+01 3.008272303872381e+00 -3.980421682399045e+00
12 2 6.448332613256957e+01 6.209573189163381e+01 4.896621407311584e+00 -3.656172441075940e+00
13 1 5.846063028234681e+01 6.656550169897456e+01 1.843511115262942e+00 -4.101815490001035e+00
14 1 6.126661912269277e+01 5.711084866510937e+01 6.268325886892906e+00 -4.441218214836748e+00
15 1 6.240213112630563e+01 7.337245712386282e+01 6.043896704783591e-01 -3.395564937182455e+00
16 1 6.598229982537322e+01 6.940337226266877e+01 7.961007935083204e-01 -4.729153673405356e+00
17 1 6.668530220115990e+01 7.219340319013212e+01 4.047432294395984e-01 -4.265914645027963e+00
18 2 6.500626167898605e+01 5.639531204148187e+01 7.336703859905177e+00 -3.907197935639115e-01
19 2 5.381080085216301e+01 5.848735263403987e+01 4.783082399095742e+00 -2.719490965320692e+00
20 2 6.794715861074278e+01 6.003360574949611e+01 5.882727662147789e+00 -3.145662859237557e+00
21 2 6.950316470844807e+01 7.413110277144935e+01 6.142256360484183e+00 -1.229272940780739e+00
22 1 5.799692843759838e+01 5.451736818667486e+01 5.018745354942875e+00 -5.187242085114326e+00
23 1 6.391974379191853e+01 5.657564340837343e+01 6.907381409406326e+00 -1.151954345665245e+00
24 1 6.898400436045316e+01 6.480477522670613e+01 4.141337136090169e+00 -3.758176150381276e+00
25 2 6.751420777864567e+01 7.540362063008484e+01 3.711834081468010e+00 -4.958035931077354e+00
26 1 6.157805504435392e+01 6.113914214356902e+01 3.535551732975116e+00 -3.575564558796862e+00
27 1 5.329723709458946e+01 6.344839151960587e+01 3.292044882802188e+00 -1.536731402804550e+00
28 1 6.388516514455094e+01 7.401045008585641e+01 1.055539012473561e+00 -3.938567871342832e+00
29 1 5.767384465850756e+01 7.722389838387122e+01 -2.419440024195710e+00 -4.432941214228283e+00
30 1 5.826193801570353e+01 6.011692663169664e+01 4.077734189586303e+00 -3.568568216398793e+00
31 2 6.536141348264546e+01 5.513289052463902e+01 6.842146159765649e+00 -1.154313135132964e+00
32 2 5.783663550678606e+01 5.339684712168075e+01 4.555594386327199e+00 -4.841997083883680e+00
33 2 6.885627209974973e+01 5.806912969697775e+01 7.232957897706067e+00 -3.566065967909036e+00
34 2 6.401386983113817e+01 6.485326761092298e+01 2.588471960745670e+00 -3.948408496208084e+00
35 2 6.406632746473591e+01 5.851054375777625e+01 4.812890967335829e+00 -1.893853393351779e+00
36 2 5.664816847470547e+01 7.504301539640730e+01 -1.810104806258730e+00 -3.469875108192034e+00
37 1 5.576751913082168e+01 5.978793989379975e+01 4.215637744143905e+00 -2.947299727553961e+00
38 2 5.888130247951204e+01 5.920266542548570e+01 4.480156421446988e+00 -3.798523913816747e+00
39 2 6.766543662713919e+01 7.165763460495241e+01 1.157921516826801e+00 -4.829491285081596e+00
40 1 6.074673779935698e+01 7.380799353475413e+01 -2.292733516157244e-01 -4.379951698786217e+00
41 1 5.480893674883847e+01 6.998860587088419e+01 7.466406292345612e-01 -2.397700979567283e+00
42 1 6.507354119759333e+01 5.791654611136337e+01 5.167298998503531e+00 -2.501232747631398e+00
43 2 5.502811217605016e+01 6.067244424839649e+01 3.816193616586825e+00 -2.801761448856996e+00
44 1 5.890520642328877e+01 5.439497345553158e+01 5.002641332697650e+00 -3.733647022485421e+00
45 1 6.804070081992751e+01 6.677901078899725e+01 1.794951385974875e+00 -5.289958581287165e+00
46 1 6.253323664040153e+01 7.662279529344647e+01 -1.498690469199510e+00 -5.563312005783968e+00
47 1 6.307491464229440e+01 7.132696573687650e+01 5.789445181555626e-01 -3.837677877064087e+00
48 2 6.520893217399389e+01 6.091418943213860e+01 4.582041580741902e+00 -4.107365696740874e+00
49 2 6.711028773176251e+01 6.328094753703126e+01 4.561414997399495e+00 -3.771073892478367e+00
50 2 6.195025510619416e+01 5.803771923903373e+01 4.916630507053339e+00 -3.551724453923437e+00
51 2 5.887452529698254e+01 6.216234798510328e+01 2.177724205821733e+00 -3.787354212183509e+00
52 1 6.987474268595297e+01 7.596764624707588e+01 5.019230050867981e+00 -2.866136112908901e+00
53 1 6.511563975617331e+01 7.367122839199226e+01 7.351681468523934e-01 -3.395881473812591e+00
54 2 6.878971641494300e+01 6.595881044497538e+01 3.452200850156064e+00 -4.395696863602085e+00
55 2 6.149767911861526e+01 6.670399794595048e+01 1.095303609599397e+00 -3.809359473938269e+00
56 1 5.986007621870753e+01 6.168509798731046e+01 2.957696176960633e+00 -2.652249251201959e+00
57 1 6.294966626587856e+01 7.406076987256459e+01 9.149608949575937e-01 -3.810402594932485e+00
58 1 6.647631763759532e+01 6.153640690210376e+01 6.160750295345806e+00 -2.643522195610035e+00
59 2 6.561019468597421e+01 6.309245155974146e+01 3.229726267105254e+00 -4.389399230956060e+00
60 1 5.824763073979033e+01 1.008882527459564e+02 5.714619304968055e+00 -4.107752798186863e+00
61 2 6.049050295234582e+01 6.071173686108516e+01 3.354834247044375e+00 -3.388527225607370e+00
62 1 6.830360617255592e+01 6.416407675237399e+01 4.252695238465602e+00 -3.398550967496231e+00
63 1 5.930195400455965e+01 6.322128133577696e+01 2.478900772526871e+00 -4.438568601391784e+00
64 1 6.809670586625892e+01 6.110921337771477e+01 5.698758229637808e+00 -3.189978780319195e+00
65 2 6.107574332571186e+01 6.319504006423844e+01 4.951651437823444e+00 -4.427578531146325e+00
66 1 1.013258122174226e+02 5.997777028340150e+01 4.205322200439963e+00 -1.943292276819196e+00
67 2 5.914481579940426e+01 6.081612832363046e+01 3.514663275311383e+00 -3.280352665090475e+00
68 1 6.719193945118994e+01 6.093367000202353e+01 5.772696305970157e+00 -3.015521741618946e+00
69 1 6.644073142737626e+01 7.023418829096458e+01 1.924783302926240e-01 -4.728751552688906e+00
70 2 5.559700386985188e+01 6.735859587785438e+01 1.615701540134037e+00 -2.505927356427978e+00
71 1 5.984349229798809e+01 5.418077621428251e+01 3.675785148822969e+00 -5.721376579658124e+00
72 2 6.241159451594107e+01 7.042635018465762e+01 1.018812409782597e+00 -4.282569127136462e+00
73 1 5.691214890376432e+01 6.762650705984812e+01 2.282014856217673e+00 -2.863812487011040e+00
74 2 6.473829572895340e+01 7.474032397934344e+01 4.950498615263224e-01 -3.649443858084345e+00
75 1 6.031987243691130e+01 7.004946801638910e+01 1.512236162475373e+00 -3.609494847006448e+00
76 1 6.828166381469725e+01 7.622788261076997e+01 3.068239736616119e+00 -4.352452749948346e+00
77 1 6.251091386616558e+01 7.566459322600114e+01 -3.870730931955896e-01 -4.928452998836963e+00
78 2 5.892418959926157e+01 6.880729866565328e+01 2.046906126064868e+00 -3.988134550364359e+00
79 1 5.516664792591216e+01 6.838930328972754e+01 1.406626639574367e+00 -2.400085443791101e+00
80 2 6.139383345345347e+01 7.283228878831608e+01 6.373370176548584e-01 -3.914324285518093e+00
81 2 5.737708174567048e+01 5.542599616523356e+01 5.943299291723449e+00 -3.912790312605350e+00
82 1 5.422031747624563e+01 5.744323946833693e+01 4.969760343320646e+00 -3.048883018527541e+00
83 2 5.945031214134404e+01 7.369944299445123e+01 -3.846143900826626e-01 -4.408163715660979e+00
84 1 5.430169941857422e+01 6.592247248025468e+01 2.214464984203967e+00 -2.107180953239395e+00
85 2 6.292281824759446e+01 5.615908102286662e+01 7.702392579279191e+00 -2.330700889752435e+00
86 2 6.693338225948322e+01 7.421670127322554e+01 2.507737791056152e+00 -3.912776676732120e+00
87 1 6.335958476569945e+01 7.614306650597398e+01 -7.406189508294528e-01 -4.445246530845229e+00
88 1 5.957614924619435e+01 5.506059731018029e+01 6.126902710669252e+00 -4.580777406889597e+00
89 1 6.001842026731120e+01 6.265778812204731e+01 4.321603153476059e+00 -2.407381972632577e+00
90 1 5.683800847461404e+01 7.088243886719121e+01 5.149543909601508e-01 -3.288293907268212e+00
91 1 5.966290292881959e+01 6.794178779451239e+01 1.481374976223259e+00 -5.281168348817347e+00
92 2 5.736127492048590e+01 7.609697571766522e+01 -2.057003900528652e+00 -4.051930538987582e+00
93 2 5.327944203056470e+01 5.419133962837094e+01 5.257302434731559e+00 -2.461680209581595e+00
94 1 6.745711143768142e+01 5.600856929491508e+01 7.661208759191112e+00 -1.608232466661878e+00
95 1 6.996091786831704e+01 7.315196993214168e+01 -8.166825968744540e+00 -7.986673958370747e+00
96 2 5.603492101018786e+01 5.743749993026215e+01 5.214925690752952e+00 -3.371074772007849e+00
97 1 6.890473170134881e+01 6.709310839652267e+01 1.647615355079980e+00 -5.100747843060714e+00
98 2 6.406669339007735e+01 6.916058210443526e+01 1.430464788427864e+00 -4.191065752380002e+00
99 2 6.120910481914688e+01 7.487717314616597e+01 -8.936495418196558e-01 -4.741416940815404e+00
100 1 5.775851292583800e+01 6.237787517399826e+01 2.360013593618588e+00 -3.285244255644455e+00
101 2 5.725895571193585e+01 5.783015395907106e+01 5.090501904184379e+00 -3.648950471532718e+00
102 1 5.968909128899535e+01 5.605054051906900e+01 5.834517478653858e+00 -3.788494928512181e+00
103 2 1.014491667888880e+02 6.098000819242979e+01 3.793639236263534e+00 -1.988612491159279e+00
104 2 6.419887169319301e+01 6.796098544721744e+01 1.746425014348709e+00 -4.284377961904850e+00
105 2 5.677283009462708e+01 6.195911646405972e+01 2.699348156382116e+00 -2.936977362035848e+00
106 2 6.587416597662191e+01 5.961530446198898e+01 5.195752565391589e+00 -1.724630490787088e+00
107 1 6.130590477006531e+01 7.009776812295931e+01 1.287580520760654e+00 -4.622719499370662e+00
108 2 6.164148597779870e+01 5.606396171029259e+01 7.469912185758969e+00 -5.123443626441578e+00
109 2 6.806343750297756e+01 5.299625303334652e+01 1.137040634964207e+01 4.820688886100342e+00
110 2 5.481894365043319e+01 5.583650883687792e+01 5.247001729638471e+00 -2.940442415569307e+00
111 2 6.545716867340420e+01 7.581017953783520e+01 1.827725378006638e+00 -5.137884884132125e+00
112 1 6.086752750129426e+01 6.924575913923101e+01 1.553678648643311e+00 -4.546654137945706e+00
113 1 6.733615695046213e+01 7.052162993033258e+01 -3.915936219956018e-01 -5.205490082886470e+00
114 2 6.818859486129946e+01 7.423322537309571e+01 4.196980506778713e+00 -5.890032546512136e+00
115 1 6.365420956939209e+01 7.699221549450210e+01 2.089406606911156e+00 -5.821046430199053e+00
116 1 6.027442328141134e+01 7.298123229281690e+01 2.665779355842245e-01 -4.213371796529696e+00
117 2 6.009715081033421e+01 6.398056007994099e+01 3.224852895421415e+00 -5.305312360828847e+00
118 2 6.415213168275098e+01 7.805221758888202e+01 2.815329576665804e-02 -5.647493908219140e+00
119 2 5.566979170199175e+01 6.274882462025496e+01 2.320413225868927e+00 -2.593313789617848e+00
120 1 5.738186316439422e+01 6.026368530104879e+01 3.926077112457786e+00 -3.630400389239108e+00
121 2 5.822128650984475e+01 6.334773279880508e+01 2.360980188534476e+00 -3.463440254354573e+00
122 1 5.831862921563737e+01 7.422421685373789e+01 -9.308716991261938e-01 -3.903870322153003e+00
123 1 6.814551696083775e+01 6.770538114637866e+01 1.544639802534301e+00 -5.354190811600851e+00
124 2 6.702398432153196e+01 6.720400524427612e+01 1.418721238469075e+00 -5.047962493779305e+00
125 2 5.536349823914853e+01 7.496315868113071e+01 -1.600538931532187e+00 -3.035827148750924e+00
126 1 6.286243392434022e+01 5.508001177684585e+01 -1.275919613224560e+00 -1.941539038375229e+00
127 1 6.126326160928353e+01 5.891723091320754e+01 4.354107570146112e+00 -3.617444210493701e+00
128 1 5.894227618266421e+01 6.578368223490359e+01 2.266954819768269e+00 -4.540365875494894e+00
129 2 5.393717825169705e+01 6.150715659550583e+01 3.431384266214931e+00 -2.400611956431473e+00
130 2 6.478160246017849e+01 7.126612688103498e+01 7.577543604919955e-01 -3.970660155092446e+00
131 2 5.661474928480816e+01 6.655338961748517e+01 2.027300891705004e+00 -2.668366834642868e+00
132 2 5.912654206767228e+01 7.496628041563216e+01 -1.017782798034162e+00 -4.608236140203475e+00
133 1 6.061004728172505e+01 5.956201006457214e+01 4.079835267694010e+00 -3.414450891941914e+00
134 1 6.622969052093920e+01 6.632804259505268e+01 1.651406152921396e+00 -4.726145005161083e+00
135 1 6.047461280577838e+01 6.838814339959684e+01 -7.762488232851812e-02 -3.704864445341985e+00
136 1 1.013736285940976e+02 7.665711337605192e+01 -2.345825203480987e+00 -2.042256990672582e+00
137 1 6.190434786739620e+01 6.560366066163624e+01 1.684226708083445e+00 -3.768758198147873e+00
138 2 5.828970841224344e+01 7.314181740980708e+01 -1.906080874412008e-01 -3.801951122780800e+00
139 2 6.705941774486482e+01 5.897529539481478e+01 6.314559514127833e+00 -2.185261487157861e+00
140 2 5.753172383008677e+01 6.443262668595560e+01 2.390087469080830e+00 -3.292067346581589e+00
141 2 6.437469505297665e+01 6.346983355180896e+01 3.174136412765507e+00 -3.767174688947827e+00
142 1 5.994209536821140e+01 6.918779966555367e+01 1.434196309080426e+00 -2.961414870603542e+00
143 2 6.375644425266952e+01 7.043707091995995e+01 9.407818630420781e-01 -4.023977031870027e+00
144 2 6.027522528295651e+01 1.008614485537050e+02 4.925918731078334e+00 -5.340767610390238e+00
145 1 6.591045234019471e+01 6.721393129385334e+01 1.462512903940270e+00 -4.702822747647470e+00
146 1 5.669807250073093e+01 5.312579487560568e+01 4.186936266963283e+00 -3.552942602844506e+00
147 1 6.766065450850488e+01 5.410245797647615e+01 7.534079189020684e+00 1.443132932705747e+00
148 1 5.639858638143802e+01 6.419228681902399e+01 2.648510488164372e+00 -2.401544980830168e+00
149 1 5.500194234450247e+01 5.695544662904349e+01 5.455111690385222e+00 -3.079383345681749e+00
150 2 6.059610720453212e+01 5.796623307813143e+01 5.271997298447275e+00 -4.209057046515436e+00
151 2 6.170098488522162e+01 7.148498349664877e+01 1.522141985541065e+00 -3.671120227025934e+00
152 1 5.392137423134292e+01 7.019851201019941e+01 5.869549657655391e-01 -1.842887506065768e+00
153 2 6.665659149000885e+01 5.470932171686015e+01 6.637722739751582e+00 -2.465693956715002e-01
154 2 5.450986552106227e+01 5.378692364739984e+01 5.568702507707018e+00 -2.511007443798261e+00
155 2 5.774906056026234e+01 6.578630742730869e+01 2.262224071518994e+00 -3.632333250942406e+00
156 2 6.627707501029236e+01 6.832143914901420e+01 1.128787074338688e+00 -4.919459651077428e+00
157 1 6.519446895142416e+01 6.883599265086897e+01 1.260362746636918e+00 -4.356197980190581e+00
158 1 6.586948504843669e+01 7.173655321439371e+01 6.883442676227378e-01 -4.428030811373100e+00
159 2 5.624233351648869e+01 5.872505895780596e+01 4.531653918838757e+00 -3.296634549605515e+00
160 2 1.014641860465062e+02 6.221783656795208e+01 3.323640384247556e+00 -1.931629849329398e+00
161 2 6.148713484129937e+01 7.610324701603422e+01 -1.061893411292957e+00 -5.471843889837481e+00
162 1 5.916802745166996e+01 1.011048077384498e+02 5.051805969284470e+00 -3.618830575992765e+00
163 1 6.772194842797199e+01 5.506622230099453e+01 8.089595305811972e+00 -9.757591576378053e-01
164 2 5.376488782055061e+01 7.622692095792962e+01 -2.062615340732012e+00 -2.370110829003656e+00
165 2 6.263303178691624e+01 6.085030945850368e+01 3.583004274231826e+00 -3.803938962401165e+00
166 2 6.632105026189576e+01 5.600103385222183e+01 7.162382983587089e+00 -8.418642086187159e-01
167 2 5.478219313822304e+01 5.936810582252108e+01 4.515038010944160e+00 -2.945146395485771e+00
168 2 5.864476853913284e+01 5.553780563251362e+01 6.114556298278548e+00 -3.376303570681870e+00
169 2 5.447218676574184e+01 6.355438360787103e+01 3.240418872115746e+00 -2.552626612749243e+00
170 1 6.295388517809155e+01 5.856589010585628e+01 4.515126304798184e+00 -2.988476962007535e+00
171 1 5.610665338325649e+01 7.406723707938309e+01 -1.069606669159706e+00 -3.306991921254257e+00
172 1 6.915778816647291e+01 7.648766122765731e+01 3.194153277096751e+00 -3.917095551166173e+00
173 2 5.362219174240892e+01 7.191034858178278e+01 -1.404797408361303e-01 -2.223831715497368e+00
174 2 5.507700375946388e+01 7.369364933076389e+01 -9.657766307928974e-01 -2.843058654578560e+00
175 1 6.634735210897375e+01 7.512739453411969e+01 3.140935663125462e+00 -4.081464586835593e+00
176 2 5.806327423597240e+01 7.188880892001710e+01 4.534262845069458e-01 -3.498688586913178e+00
177 1 5.762155534867944e+01 6.697516805479071e+01 1.959523144065474e+00 -3.603033768890430e+00
178 2 6.386290519219045e+01 7.215371274804882e+01 8.791724650865522e-01 -3.885445068950229e+00
179 1 5.577993564326143e+01 5.637257537140461e+01 5.505379497845285e+00 -3.517752488621674e+00
180 2 6.347852014012437e+01 6.690764081250789e+01 1.239261992482956e+00 -3.518959521431679e+00
181 1 6.578409728937082e+01 7.081989645882487e+01 7.387072308495177e-01 -4.200614623687364e+00
182 2 5.930420233956384e+01 7.233506731542009e+01 5.160773998515663e-01 -4.200333773024005e+00
183 2 5.951606567903648e+01 6.683130108715261e+01 1.350362994479635e+00 -4.845104850584176e+00
184 1 5.666574545706871e+01 5.970464976375717e+01 4.142586483923766e+00 -3.355545176388361e+00
185 1 6.825319696785094e+01 7.075045904824981e+01 -1.579478469021488e+00 -7.285479877301577e+00
186 1 6.053301967389717e+01 6.741688878652006e+01 3.499096137748820e-01 -3.830543858324445e+00
187 1 6.655207077487033e+01 7.602110358210101e+01 2.548253032589380e+00 -4.762419090310074e+00
188 1 5.430613484893929e+01 7.522767955437757e+01 -1.765195249148038e+00 -2.691068096202956e+00
189 1 6.428404927589608e+01 7.582136596143377e+01 4.003441771833513e-01 -3.662236873481325e+00
190 1 6.231551657174911e+01 7.473069023697398e+01 -2.214464367032409e-01 -4.517378893061877e+00
191 1 5.834238598407772e+01 7.570772924662971e+01 -1.974773167605210e+00 -4.766405007696997e+00
192 1 6.664722006516003e+01 7.119549141469959e+01 7.637969231458414e-01 -4.393066132320433e+00
193 1 6.172045092274644e+01 7.393748199713139e+01 -2.105828932729652e-01 -4.219184602008933e+00
194 2 6.266822132707726e+01 6.480477065234538e+01 2.624590220083708e+00 -3.428491230688442e+00
195 2 5.591582597433470e+01 7.160234141591803e+01 2.686673252585410e-01 -2.994505634324334e+00
196 1 6.604768158724130e+01 5.842914589116180e+01 6.609070714463977e+00 -1.306261098260408e+00
197 2 6.838204266912994e+01 6.885278520155288e+01 7.733087159100923e-01 -5.854217288640639e+00
198 1 6.049545998947930e+01 6.644580836471332e+01 1.545647229986663e+00 -3.962620866847779e+00
199 1 5.987379193877879e+01 7.093325513446000e+01 1.177239258881708e+00 -3.558492413846495e+00
200 1 6.058038073676063e+01 5.646316208010877e+01 6.511138995531180e+00 -3.813396297946498e+00
201 1 5.564767174067538e+01 6.478704889281713e+01 2.631317765540257e+00 -2.209800602484392e+00
202 1 5.897473781653034e+01 6.413684063629567e+01 2.963254350813306e+00 -4.367481594175886e+00
203 1 5.572916321664955e+01 5.414861307842616e+01 5.508856390002959e+00 -4.223719396881688e+00
204 1 6.252497207656087e+01 6.631889248806671e+01 1.514917933544785e+00 -3.691176756574234e+00
205 1 6.222388978258557e+01 5.912536326893625e+01 4.401320186381489e+00 -3.309969177523637e+00
206 1 5.810898710491455e+01 6.955267109163273e+01 1.622040245393391e+00 -3.464916999099314e+00
207 1 6.410565202757677e+01 6.599428575077080e+01 1.880932966117663e+00 -3.860398538754683e+00
208 2 6.504477090976255e+01 6.998646410940766e+01 9.922791328350311e-01 -4.130136495033621e+00
209 1 6.845402564247850e+01 7.715031711893320e+01 2.288069284469418e+00 -4.340561597279850e+00
210 1 5.800857845641389e+01 5.644396197042242e+01 5.445126158163942e+00 -3.504855361908411e+00
211 2 6.914350382815557e+01 5.960874384297546e+01 6.244965998188007e+00 -3.493123885060169e+00
212 2 6.626051415360712e+01 6.519402551585542e+01 2.496194275675383e+00 -4.734987907048055e+00
213 2 5.505348757254220e+01 5.813931240614928e+01 4.796473626671493e+00 -3.190976287477255e+00
214 2 6.906715439639734e+01 7.146630235426561e+01 -4.184493118248719e+00 -7.253251514881808e+00
215 1 6.080366170078219e+01 7.083435425408916e+01 1.704670369955588e+00 -3.892582028622934e+00
216 1 6.220694380456076e+01 5.699730688231253e+01 5.950652101236765e+00 -3.799238871942520e+00
217 2 6.888668199387455e+01 6.187215084196838e+01 5.628760714189876e+00 -3.487050393003623e+00
218 2 6.940620487383094e+01 5.684064871719782e+01 8.091760105892867e+00 -4.091454698916264e+00
219 2 5.851517216499486e+01 6.764379931456899e+01 1.513508960890324e+00 -3.846201276813458e+00
220 2 5.697017512144721e+01 6.971364461709160e+01 1.324001178262632e+00 -3.148876559059988e+00
221 1 5.464194198868990e+01 6.674467847899693e+01 1.799041536684766e+00 -2.123154463686848e+00
222 2 5.543384273805184e+01 6.594646284403690e+01 2.137227396619638e+00 -2.274241615042787e+00
223 2 6.808686243020004e+01 5.699326098274668e+01 7.816012754515667e+00 -2.831168651681611e+00
224 2 5.627447009457498e+01 6.855712027967967e+01 1.525127113222386e+00 -2.851906051468272e+00
225 2 5.583435895240180e+01 7.033046204572651e+01 7.868720229853976e-01 -3.020435614237781e+00
226 2 6.163111578019559e+01 6.001927242152303e+01 3.760758200730764e+00 -3.514328537608061e+00
227 2 5.916103709034328e+01 7.007476877994354e+01 1.184472975843838e+00 -3.492184394854305e+00
228 1 5.541794848617366e+01 6.928452120559467e+01 9.808800184213181e-01 -2.657701994546827e+00
229 1 5.828733078703730e+01 5.733214522696962e+01 5.545446756956198e+00 -3.569381948939435e+00
230 2 6.333189551468171e+01 6.279560979798428e+01 3.819854358625426e+00 -4.253865865652209e+00
231 1 6.562113369256852e+01 6.195730083626444e+01 5.194450103184041e+00 -4.438780577183401e+00
232 1 6.774964013418870e+01 5.808050823040099e+01 6.965374813613690e+00 -2.728002399050387e+00
233 1 5.498602747814394e+01 6.177866233911067e+01 3.217340204246273e+00 -2.711906796671978e+00
234 2 5.491212841836842e+01 7.238033355323704e+01 -2.516682725113301e-01 -2.647077074538769e+00
235 2 6.752219542247714e+01 7.302653585134495e+01 -3.760878322870420e-01 -4.158881860575053e+00
236 1 7.081194938242099e+01 6.150218277692432e+01 5.529143307738790e+00 -3.318518470278809e+00
237 2 6.047517876541395e+01 7.188422975303271e+01 1.163455372434620e+00 -3.929386613498059e+00
238 1 6.627780873862412e+01 6.402494208868956e+01 3.416118734125079e+00 -4.651875562789880e+00
239 2 6.728110893334535e+01 6.453027566377128e+01 3.503449818357869e+00 -4.282043153395789e+00
240 1 1.016019234945761e+02 5.624124069791036e+01 4.900911007684516e+00 -2.391121059774786e+00
241 1 6.527868437351111e+01 6.790330382423994e+01 1.433873314669053e+00 -4.487942893471647e+00
242 1 7.005034664986556e+01 7.092242062383851e+01 -2.065798948130827e+00 -6.271509311953294e+00
243 1 5.298038682212314e+01 5.526601607598010e+01 4.992892407000864e+00 -2.501886138386453e+00
244 2 5.425636396518006e+01 6.774254569145103e+01 1.524849264134255e+00 -1.959012564650954e+00
245 1 1.013574008509079e+02 5.836062115224811e+01 4.903953761796494e+00 -1.862855847197863e+00
246 2 6.228308173475414e+01 6.353313291228944e+01 3.974894875827213e+00 -3.412985399556002e+00
247 2 6.324361429124107e+01 5.966121276540157e+01 4.788034759167521e+00 -3.485303249735086e+00
248 2 6.563939400916362e+01 5.384301096761790e+01 5.398239130113211e+00 -1.098321487716228e+00
249 1 5.944114031431804e+01 6.494664237534140e+01 2.673585975365356e+00 -4.708114278033338e+00
250 1 6.892483815140055e+01 6.071625372927485e+01 5.484504556540097e+00 -3.583013362899414e+00
251 1 6.324287530038949e+01 6.574793380982877e+01 2.107179122238836e+00 -3.577876722294097e+00
252 1 5.987938890377657e+01 5.701107339314282e+01 5.630484784073054e+00 -4.039415103946411e+00
253 2 5.466705836604983e+01 7.108187743488430e+01 4.898953645321432e-01 -2.420285733929394e+00
254 1 6.688257676126636e+01 6.005454631513383e+01 5.414998411434853e+00 -2.464482079429101e+00
255 2 6.841022802972411e+01 6.307436232920515e+01 4.735304365882229e+00 -3.367695004781912e+00
256 2 6.261394828538090e+01 7.233101316046496e+01 9.574023361740746e-01 -3.400345210177410e+00
257 2 6.512910059803639e+01 6.565787576070856e+01 2.077291763546321e+00 -4.487182278761436e+00
258 2 5.756949805998801e+01 5.913686960323403e+01 4.457304023627637e+00 -3.600597745458676e+00
259 2 6.403280331109593e+01 5.543764825778056e+01 8.249577713948399e+00 -2.179573673172592e-01
260 2 5.690111065902222e+01 5.655051718502799e+01 5.456995359554771e+00 -3.633708161248923e+00
261 2 5.391353462072240e+01 7.316991362015072e+01 -8.230988619578562e-01 -2.383641899911215e+00
262 1 6.843769543695848e+01 7.240538769369581e+01 -1.196596844131832e+00 -2.006978532948896e+00
263 1 5.825896048309747e+01 5.827186414360770e+01 4.923570997593421e+00 -3.680541761444275e+00
264 1 6.304451448983181e+01 6.949952267702743e+01 1.466598731161493e+00 -4.274113708793497e+00
265 2 6.344609101215995e+01 7.504511622335887e+01 2.877704972398474e-01 -4.036317683168636e+00
266 2 6.456811051618965e+01 5.973591617417580e+01 4.778952366969548e+00 -2.989858854684771e+00
267 1 6.335350894241749e+01 6.392829143466542e+01 3.200143906320311e+00 -3.793802251312702e+00
268 1 5.410997593655421e+01 7.430749461366214e+01 -1.373742808651474e+00 -2.520148364672245e+00
269 2 5.377723400316113e+01 6.015586138791221e+01 4.165608217695337e+00 -2.403960977229143e+00
270 1 6.645777014261309e+01 6.241466934259614e+01 4.631324645667883e+00 -3.071835171457945e+00
271 1 5.776505979990812e+01 7.496971867887645e+01 -1.907166727540588e+00 -4.282184856921901e+00
272 2 6.890063342503301e+01 7.533539228524340e+01 4.164147485740535e+00 -3.769332142879475e+00
273 1 6.428604415646019e+01 7.321714636584170e+01 9.486685906608828e-01 -4.069270678701640e+00
274 1 6.345877952613140e+01 5.442773981910290e+01 4.483430533218129e+00 2.794813476152114e+00
275 1 5.916323287970391e+01 7.609618321430051e+01 -2.159469015675318e+00 -5.138431350317182e+00
276 1 5.896628848691271e+01 5.667638455580331e+01 5.598620987205544e+00 -3.674409934837966e+00
277 1 5.974590472330735e+01 5.985763037125553e+01 3.868997454050404e+00 -3.585630684672030e+00
278 2 5.426224252115841e+01 6.905569847049816e+01 1.035486464459575e+00 -2.051744218306045e+00
279 1 6.016352064882310e+01 7.457128036520500e+01 -7.769302368485210e-01 -4.551428402146897e+00
280 2 6.197398494591457e+01 6.920021952708224e+01 1.794348050012046e+00 -4.475982360029006e+00
281 2 6.294598436644937e+01 6.832345911857828e+01 2.025947631732745e+00 -4.471000707017615e+00
282 2 5.346207508902487e+01 6.668422982619668e+01 1.907048885790966e+00 -1.627582150079424e+00
283 2 5.720838149312231e+01 7.386057928289704e+01 -8.152600718721966e-01 -3.522758232198583e+00
284 1 5.995933034408633e+01 5.889205683349189e+01 4.852471838944081e+00 -3.745331775637827e+00
285 1 6.580324034053660e+01 7.433260259354910e+01 1.431111605134911e+00 -2.933980543324371e+00
286 2 6.512232058081058e+01 7.252376266794560e+01 1.134611848908633e+00 -3.853179732592893e+00
287 1 5.988156621318495e+01 6.577317194201942e+01 2.513744688592367e+00 -4.714592737896385e+00
288 2 5.759269737214671e+01 6.853972464899519e+01 1.802143204528435e+00 -3.078025085064137e+00
289 1 5.676183927757341e+01 7.695906929594067e+01 -2.384324990457757e+00 -3.802708503112727e+00
290 1 6.335065995576451e+01 7.320006191882007e+01 8.805499912261082e-01 -3.724979779456312e+00
291 2 5.596578364407140e+01 7.618065163640040e+01 -2.236388431367776e+00 -3.176719311447870e+00
292 1 5.395737423527704e+01 5.658381423637134e+01 4.769094263677419e+00 -2.805651501540004e+00
293 2 5.617164406271576e+01 7.292004829585606e+01 -3.643899754647187e-01 -3.208912452886796e+00
294 1 5.413986035792569e+01 5.489523673669211e+01 5.316752796813394e+00 -2.631674682488247e+00
295 2 6.734631504362555e+01 6.590703563378950e+01 1.874764714586179e+00 -4.725164571701284e+00
296 2 6.177863440339515e+01 5.481503330762630e+01 2.353764432619054e+00 -6.476154394508878e+00
297 2 5.684880954130265e+01 5.423316293891961e+01 5.355046542559753e+00 -3.654405178483337e+00
298 2 5.312050723402737e+01 5.735326820712658e+01 4.732382616469397e+00 -2.289416593649268e+00
299 2 6.617965133377888e+01 7.320797639150187e+01 5.887101883778405e-01 -3.146408757954987e+00
300 2 6.058082197505470e+01 5.533894246585518e+01 5.587774975744695e+00 -3.156309432590791e+00
301 2 6.446472785054604e+01 5.419551053221260e+01 4.624888317815365e+00 -7.960214466079394e-01
302 1 6.244288178831430e+01 6.730166335380697e+01 6.195633731981250e-01 -3.577721019280736e+00
303 1 5.506097516162280e+01 5.475931617221192e+01 5.604457154995237e+00 -3.138709418843763e+00
304 2 1.006245962857042e+02 5.563707781450096e+01 5.022839111523621e+00 -2.018529059012889e+00
305 1 6.686161193847349e+01 5.785707370240737e+01 6.923475044459392e+00 -1.733347471393489e+00
306 2 5.657803603434268e+01 6.529240111041689e+01 2.368791542340878e+00 -2.569716107963605e+00
307 1 5.307733040892580e+01 5.923113821993139e+01 4.647698981409016e+00 -2.101839501293002e+00
308 2 6.136882459152007e+01 6.453277684559201e+01 2.805646277732607e+00 -4.111892127933417e+00
309 2 6.712148877774895e+01 6.935530142396989e+01 3.576417764889878e-01 -5.330110887451278e+00
310 2 5.788920129522729e+01 6.124015869876641e+01 2.924411552392111e+00 -3.555494534388448e+00