ITEM: TIMESTEP
60
ITEM: NUMBER OF ATOMS
256
ITEM: BOX BOUNDS pp pp pp
1.8663813565521558e+01 3.5886315320487945e+01
1.8663813565521558e+01 3.5886315320487945e+01
-5.0000000000000000e-01 5.0000000000000000e-01
ITEM: ATOMS id type x y
6 1    18.74623857350627    19.16230564882409
115 2     19.6930161002648    18.68397375924872
15 1    20.76658453204208    18.83100895866213
45 2    22.63401550316297    18.78682479902179
14 2    23.81935120929352    19.33846756547421
18 1    24.97909464905024    19.26186517682293
69 2    27.00643312727852    18.84514487257145
32 1    19.40321395228403    19.80550353836612
28 1     20.3733577813056    19.65673978032109
2 2    21.56426160325949    19.53619867937742
126 1    22.67665972647335    19.84025807824847
9 2    24.69682404936238    20.32885488206571
86 2    25.95812462962711    19.85475100912742
248 2    27.22454177725439    20.17022891678996
118 2    18.91348217082669    20.84958440718593
75 1    20.00328934989841    20.50931088018047
113 1    20.92628213261331    20.45997532901857
105 2    22.04776884703949    20.77287759671006
89 2     23.4205274173512    20.60462679027153
87 2    26.41121903192994    21.15317201426079
94 2     20.0103219632763    21.60073314477542
77 1    21.07405450094214    21.37675748001994
58 2    21.89422286495537    22.10377815987219
110 1    22.85764977537348    21.55224819080184
66 2     23.9661800914114    21.77497108267295
90 2    25.21708343798264    21.44951259934646
169 2    18.92701117273516    22.18539689012835
16 1    19.93683723038089    22.79763553758795
67 1    20.79084411926865    22.32840985336498
99 1    23.02884516933926     22.4562822018661
125 1     23.8757472209031    22.90217924217752
52 2    24.93536215265148    22.69004608394819
68 1     26.0132038666446    22.27498249671622
23 2    27.13376562273012    22.26177399838922
33 2    18.91268785523525    23.40377016407061
17 2    21.23955231889164     23.3222360399931
48 1    22.31702892730828    23.06105748320607
29 1    23.14193179366807    23.40568681501527
104 1    25.09800744027114    23.75640963027908
36 1    25.90316767419598    23.23634028631006
123 2    26.95795563485412    23.51142454178924
95 2    18.98512506879835    24.67731588139748
74 2    20.09202886992165    23.96925158754028
114 2    21.20340210071607    24.64284363564719
7 2    22.34112841416153     24.1400075665413
108 2    24.01526031588803    24.04321528646176
24 1    24.91477614074641    24.66881842654033
21 2    25.99492681362393     24.4071860412846
40 1    27.07375459757524    24.62326903782537
35 2    20.12982120696406    25.37010294812574
96 2    22.30854906999301    25.45539732463928
46 1    23.20377383135256    24.80742882333454
100 2    24.09066553672482    25.41860968870389
39 1    26.54043195574147    25.41600889732439
54 2    18.95345231875545    25.92778976449997
62 1      21.236534531998    25.72293036619357
42 1    20.68024262314631    26.38975688207102
8 2     25.4391427450078     25.6321087110243
65 1    26.85956553712454    26.29173258212776
146 2      19.774346927466    26.99290328922617
25 2    21.82851767342854    26.69478082651988
109 2    23.19221019168075    26.42055886187613
119 2    24.56064579118891    26.61786581559001
112 2    25.88814914561861    26.84316378300901
51 1    27.00907668587862    27.21837696164206
234 2    19.12404439194108    28.12401565524412
103 1    20.88897015228994    27.29158510776975
80 2    21.66571636831057    28.13266994764131
72 1    22.62241203127427    27.43693330415327
38 2    23.75012178652869    27.61603144367816
71 2    25.00510697641366    27.86851554185786
12 2    26.24401086004604    28.07803893029146
111 2    20.36218886424248    28.25368163710225
82 2    22.89065514678758    28.51276467619687
85 2    24.19006593434122     28.9079901635226
22 1    25.47810487435143    28.92172062818902
195 1    19.57790040805229    29.13892086191881
59 2    20.69471255590141    29.49593788037489
107 2     22.0143862613768    29.48074070343567
98 1    23.19870222323052    29.50340490103823
26 2     26.5937947001586     29.3213606543047
55 1    19.66734985173236    30.04836221824391
5 1    20.43459727600954    30.59075250410304
83 1    21.37424921186325    30.43846275689895
117 2    22.88054564106573    30.52019305927443
43 1    23.93454646019934    30.05065079144335
10 2    25.02721639890616    29.93721579934294
120 2     26.1484204243923    30.54656002889678
53 1    27.22058290792346    30.31006796229585
34 2    19.46329541338774     31.1685258536221
19 2    20.97699530123188    31.55784191333455
27 1    22.00141283361496    31.12534458686178
81 1    23.18749895691579    31.57709400429979
4 1    23.95399220555249    30.98080315897387
47 2    25.07032464633237    31.26800518708648
1 1    26.65577432051038    31.48849545296989
64 1    18.89819362845149    32.19883335543889
79 2     19.9255684575204    32.38846316590021
31 2     22.2222574478155    32.20854106295368
106 1    24.09169764055827    31.91748071827736
92 1    24.93059008795037    32.33448982782719
37 2    26.02191580253612     32.4143150455825
162 1    27.16965407367627    32.25701160094145
70 2    21.07439044703304    32.86592061681249
13 1    23.33443190703721    32.48855132342526
73 1    24.23021658593707    32.88790493958404
84 1    25.15254038474155    33.22779673927867
56 2    18.97469896998141    33.38232948971912
30 1    20.10313307011286    33.49625765233264
63 2    22.13091879315335    33.53849053142191
49 2    23.38311870045115     33.5753793486052
97 1    24.46562210265741    33.83929801931544
11 1    25.98996250828895    33.56988314815125
76 2    27.00156631349165    33.35856894615281
61 2    19.65630631663002    34.54466489774168
102 2    20.98663339729455    34.17871107795546
20 2     22.7172757987528    34.68709820584269
121 1    23.88233535832041     34.5732006713305
124 2    25.40105856837902    34.45476454769533
127 2    26.73227343941659    34.71828716877199
91 1    18.66820179600657    35.42003634814981
3 1    20.52093867049351     35.1766164197327
116 2    21.59811292496141     35.3319128796326
88 1    23.53012655081859    35.44271466415467
44 2    24.58039827785763     35.4463660834252
78 2    25.82162341391915    35.72039444791827
188 2     28.1773666890979    19.36674161413642
181 1    29.02346092615776      18.732216689809
206 2    30.16617144256304    18.68114754942891
210 2    31.50913126597682    18.98005220707632
199 2    32.86831801473102    18.87139098449648
208 1    33.91046554535715    19.26993400429127
93 2    34.93893698121084    18.89402564886092
183 2    29.40463742030987    19.77151026894894
205 2    30.63670456059434    19.95914436866704
172 1    32.24838820067143    19.82053623142084
168 2    33.32805710544722    20.16144213359001
139 1    34.49811484934327    19.97831807052632
132 1    35.46645047658579     19.9247466919667
190 2    28.48169684373661      20.671277569162
220 2    29.75981742018731    21.04200730943953
175 1    30.91315720788835    21.05221244703416
251 1    31.60168027544988    20.47656645625171
211 1    32.43108456464873    20.76266874454502
198 1    34.14396463175267     20.8756635441032
151 1    35.02870258237318     20.7458990290012
60 1    27.55159655986455    21.25370771858963
230 2    28.44972666591409     21.9909369647866
191 2    30.58887913800584    22.07626809682023
233 2    31.87387334960744    21.72190949438555
203 2    33.21794219687065    21.53538784442707
213 1    34.35273512620103    21.76117864208357
155 1    35.24230709365395    21.62485236644273
174 1     29.5233174993678    22.17288868048096
178 2    32.73227552483485     22.7880078308699
225 1    33.81931340879185    22.49214196448752
231 2    34.93446225465324    22.76488627276427
143 1    27.98907159534836    23.01831370727061
144 2    29.11289446238742    23.21546601539522
173 1    30.28197742756829     23.1484538555064
157 2    31.45264550948035    22.99207999650227
142 2    33.83515693200074     23.5876101734997
244 2    28.09237632461195    24.14198503924993
134 1    29.17473814545728    24.35106572154369
165 1    29.97031150475239     24.0229219552169
171 1    30.86363046818841    23.93913769668641
245 1    31.82878587251816    24.01507830997553
236 1    32.74553020607386    23.93015968679151
131 1    33.40421594306113    24.61248596832709
164 2    35.01619203105275    24.10865177454383
223 2     27.6819870511022     25.5210741077537
232 1    28.65017497434997    25.09093364230478
179 1    29.53341845583737    25.21646511610383
212 1    30.38229785136367    24.88625687615135
239 1    31.26816388892054    24.76183947855782
237 2    32.34105192408926     25.0251701668993
153 1    33.32757274575317    25.53762917409916
247 1    34.26848766914792    24.96119586082442
217 1    35.20202052733177    25.23773250421212
215 2    28.87101973128587    26.17767914623042
152 2    30.23930447386022    26.05587537642878
161 1    31.35697307691872    25.66679655489404
138 2    32.32376389857549    26.34448909097231
242 1    34.18976872546579    25.89001713837353
254 1    35.05429643933988    26.14211791042174
41 1     27.7636456194139    26.63020849312502
185 1    29.60732383419467    27.04695285074386
163 1    30.53432348006043    27.17269016673187
194 1    31.22818745814667    26.56927015362924
219 1    33.42220422222341    26.44603450475541
249 2    34.33914958645883     27.0450280017004
224 2    35.65866810248766    27.06128672069442
192 2     28.5126405585776     27.4331023119545
238 1     30.6582825649628    28.05817886585802
148 2    31.71194374442549    27.55614616456478
193 2    33.04206068502318    27.50727107782883
252 1    33.97976615265334    28.10613209904091
57 2    27.47778497689542    28.25580872349193
154 1    28.54141334657513     28.5497693791876
227 2    29.58525009456803    28.20133715230533
221 2    31.39703595050071    28.81149873956685
197 1    32.45153110335894    28.47737848767169
160 2    35.06045188391081    28.18094220751252
201 2     27.9335438190674     29.4787610296233
207 1    29.10036040719147    29.27804944355526
184 1    29.83292137642962    29.83062299988811
136 1    30.31611973020802     29.0531148223289
200 2    32.30463631544173     29.6649950238109
133 2    33.43271164765314    29.02185628419796
149 2    34.68762499902733    29.36505685599698
177 1     35.8124278836779    29.07747031723457
129 2    28.80252320236982    30.40831746523664
218 2    30.99429134513858    30.03240591950343
250 1     33.3203113409267    30.13997968859692
170 2    34.36774544779311    30.56856099697968
150 2     35.7560912202067    30.16982635395036
204 2    27.76938266355687    31.26924534134748
240 2    29.99697914932458    30.90827991898517
214 1    31.08980547865211    31.14590954606062
167 2    32.19421427988184    30.94458013015185
176 1    33.32599388170312    31.05659818336454
130 2    35.37232802794091    31.38045598530531
229 1    28.08668846464938    32.38753068661801
216 2    28.99610153773492    31.73717833379472
135 1    30.46669553374593    31.87093840544632
182 2    31.58040397582245    32.14258506167659
209 2    32.88728661132878     32.0971663749411
128 2    34.12967622728883    31.85910230168197
226 1    28.91527835510846    32.91028109908926
186 1    29.76762542135263    32.50227053807292
145 1    30.63703542640949    32.75532663962465
228 1    31.41039650920687    33.28209989898102
156 1    32.28734738922091    33.02244993495312
166 1    33.16978513380153    33.20710004817493
241 1    34.07559836835943    33.00606227643448
147 2    35.13037600748796    32.64412388455417
180 1    28.08017004243329    33.30411981168231
196 2    28.84028741650695    34.10500175633705
158 1    29.71831032054508    33.43225993485296
256 1    30.59262335756555    33.62532676249376
255 1    32.07240856461338    33.90103409557216
235 1    32.91715179578859    34.13820312034957
141 1    33.78510928878799    33.90007738511119
159 2    34.89727529139506    33.86810781574399
189 1    27.72807452256169     34.1933530428192
202 2    30.10531679979881    34.55476019297453
246 1    31.23572710643865    34.27353337634739
187 2    32.12952689430376    35.01003003094273
222 1    33.25094653014141    34.99501008912331
243 1     34.1531114442502    34.72554075257048
50 1    35.80294390793476    34.47748751640553
101 1    35.02771954379185     35.0100522686572
122 2    28.07183240324266    35.25168562837815
253 1    29.22263692746582    35.14383194034114
137 1     31.0271923664488    35.18767178349693
140 1    33.93647368529424    35.60110528841673
